n -t * -s 0  -x 105 -y 206 -Z 0 -z 80  -v circle -c black
n -t * -s 1  -x 805 -y 742 -Z 0 -z 80  -v circle -c black
n -t * -s 2  -x 525 -y 606 -Z 0 -z 80  -v circle -c black
n -t * -s 3  -x 405 -y 342 -Z 0 -z 80  -v circle -c black
n -t * -s 4  -x 675 -y 156 -Z 0 -z 80  -v circle -c black
n -t * -s 5  -x 905 -y 549 -Z 0 -z 80  -v circle -c black
n -t * -s 6  -x 675 -y 336 -Z 0 -z 80  -v circle -c black
n -t * -s 7  -x 555 -y 762 -Z 0 -z 80  -v circle -c black
n -t * -s 8  -x 258 -y 646 -Z 0 -z 80  -v circle -c black
n -t * -s 9  -x 645 -y 522 -Z 0 -z 80  -v circle -c black
n -t * -s 10  -x 265 -y 376 -Z 0 -z 80  -v circle -c black
n -t * -s 11  -x 495 -y 502 -Z 0 -z 80  -v circle -c black
n -t * -s 12  -x 75 -y 462 -Z 0 -z 80  -v circle -c black
n -t * -s 13  -x 145 -y 119 -Z 0 -z 80  -v circle -c black
n -t * -s 14  -x 85 -y 702 -Z 0 -z 80  -v circle -c black
n -t * -s 15  -x 340 -y 36 -Z 0 -z 80  -v circle -c black
n -t * -s 16  -x 758 -y 602 -Z 0 -z 80  -v circle -c black
n -t * -s 17  -x 435 -y 186 -Z 0 -z 80  -v circle -c black
n -t * -s 18  -x 5 -y 2 -Z 0 -z 80  -v circle -c black
n -t * -s 19  -x 515 -y 366 -Z 0 -z 80  -v circle -c black
n -t * -s 20  -x 33 -y 111 -Z 0 -z 80  -v circle -c black
n -t * -s 21  -x 805 -y 100 -Z 0 -z 80  -v circle -c black
n -t * -s 22  -x 125 -y 10 -Z 0 -z 80  -v circle -c black
n -t * -s 23  -x 505 -y 90 -Z 0 -z 80  -v circle -c black
V -t * -v 1.0a5 -a 0
W -t * -x 1000 -y 1000
A -t * -n 1 -p 0 -o 0x7fffffff -c 30 -a 1
A -t * -h 1 -m 1073741823 -s 0
n -t 0.000000 -s 0 -x 105.000000 -y 206.000000 -U 4.984076 -V 0.398726 -T 5.015974
n -t 0.000000 -s 1 -x 805.000000 -y 742.000000 -U -2.310855 -V -4.433954 -T 138.476857
n -t 0.000000 -s 8 -x 258.000000 -y 646.000000 -U 4.093660 -V 2.870879 -T 18.809572
n -t 0.000000 -s 11 -x 495.000000 -y 502.000000 -U 3.246312 -V -3.802823 -T 21.562931
n -t 0.000000 -s 17 -x 435.000000 -y 186.000000 -U 4.632639 -V 1.881132 -T 71.233700
n -t 0.000000 -s 22 -x 125.000000 -y 10.000000 -U -0.875167 -V 4.922813 -T 18.282232
n -t 0.000000 -s 23 -x 505.000000 -y 90.000000 -U 1.918458 -V 4.617306 -T 153.769308
n -t 1.000000 -s 2 -x 525.000000 -y 606.000000 -U 1.602489 -V -4.736246 -T 56.162621
n -t 1.000000 -s 3 -x 405.000000 -y 342.000000 -U 4.606915 -V 1.943280 -T 59.692881
n -t 1.000000 -s 7 -x 555.000000 -y 762.000000 -U -2.496665 -V -4.332051 -T 148.197706
n -t 1.000000 -s 12 -x 75.000000 -y 462.000000 -U 4.082304 -V -2.887005 -T 153.099837
n -t 1.000000 -s 13 -x 145.000000 -y 119.000000 -U -3.308108 -V -3.749189 -T 9.068627
n -t 1.000000 -s 14 -x 85.000000 -y 702.000000 -U 1.040538 -V -4.890530 -T 105.714521
n -t 1.000000 -s 15 -x 340.000000 -y 36.000000 -U 0.422669 -V 4.982103 -T 111.198022
n -t 1.000000 -s 18 -x 5.000000 -y 2.000000 -U 4.926753 -V 0.852707 -T 21.109240
n -t 1.000000 -s 19 -x 515.000000 -y 366.000000 -U -4.413560 -V -2.349572 -T 77.035317
n -t 2.000000 -s 6 -x 675.000000 -y 336.000000 -U 1.205115 -V 4.852597 -T 62.234717
n -t 2.000000 -s 9 -x 645.000000 -y 522.000000 -U -4.777013 -V 1.476531 -T 46.053881
n -t 2.000000 -s 10 -x 265.000000 -y 376.000000 -U -2.741785 -V 4.181222 -T 58.356148
n -t 2.000000 -s 16 -x 758.000000 -y 602.000000 -U -4.997698 -V 0.151701 -T 118.654625
n -t 3.000000 -s 4 -x 675.000000 -y 156.000000 -U -2.044662 -V 4.562824 -T 46.462458
n -t 3.000000 -s 5 -x 905.000000 -y 549.000000 -U -1.750820 -V -4.683442 -T 68.539332
n -t 3.000000 -s 20 -x 33.000000 -y 111.000000 -U 4.129567 -V 2.818986 -T 40.440079
n -t 3.000000 -s 21 -x 805.000000 -y 100.000000 -U -5.000000 -V 0.000000 -T 8.000000
+ -t 5.000000000 -s 14 -d -1 -p cbr -e 1000 -c 2 -a 0 -i 0 -k AGT 
- -t 5.000000000 -s 14 -d -1 -p cbr -e 1000 -c 2 -a 0 -i 0 -k AGT
h -t 5.000000000 -s 14 -d -1 -p cbr -e 1000 -c 2 -a 0 -i 0 -k AGT
+ -t 5.000000000 -s 14 -d -1 -p AODV -e 48 -c 2 -a 0 -i 0 -k RTR 
- -t 5.000000000 -s 14 -d -1 -p AODV -e 48 -c 2 -a 0 -i 0 -k RTR
h -t 5.000000000 -s 14 -d -1 -p AODV -e 48 -c 2 -a 0 -i 0 -k RTR
r -t 5.001408635 -s 8 -d -1 -p AODV -e 48 -c 2 -a 0 -i 0 -k RTR
r -t 5.001408773 -s 12 -d -1 -p AODV -e 48 -c 2 -a 0 -i 0 -k RTR
+ -t 5.001550682 -s 8 -d -1 -p AODV -e 48 -c 2 -a 0 -i 0 -k RTR 
- -t 5.001550682 -s 8 -d -1 -p AODV -e 48 -c 2 -a 0 -i 0 -k RTR
h -t 5.001550682 -s 8 -d -1 -p AODV -e 48 -c 2 -a 0 -i 0 -k RTR
+ -t 5.002290000 -s 12 -d -1 -p AODV -e 48 -c 2 -a 0 -i 0 -k RTR 
- -t 5.002290000 -s 12 -d -1 -p AODV -e 48 -c 2 -a 0 -i 0 -k RTR
h -t 5.002290000 -s 12 -d -1 -p AODV -e 48 -c 2 -a 0 -i 0 -k RTR
r -t 5.002819317 -s 14 -d -1 -p AODV -e 48 -c 2 -a 0 -i 0 -k RTR
r -t 5.004082208 -s 10 -d -1 -p AODV -e 48 -c 2 -a 0 -i 0 -k RTR
r -t 5.004082393 -s 14 -d -1 -p AODV -e 48 -c 2 -a 0 -i 0 -k RTR
r -t 5.004082438 -s 0 -d -1 -p AODV -e 48 -c 2 -a 0 -i 0 -k RTR
+ -t 5.006428226 -s 10 -d -1 -p AODV -e 48 -c 2 -a 0 -i 0 -k RTR 
- -t 5.006428226 -s 10 -d -1 -p AODV -e 48 -c 2 -a 0 -i 0 -k RTR
h -t 5.006428226 -s 10 -d -1 -p AODV -e 48 -c 2 -a 0 -i 0 -k RTR
r -t 5.007636796 -s 3 -d -1 -p AODV -e 48 -c 2 -a 0 -i 0 -k RTR
r -t 5.007636814 -s 12 -d -1 -p AODV -e 48 -c 2 -a 0 -i 0 -k RTR
r -t 5.007636961 -s 0 -d -1 -p AODV -e 48 -c 2 -a 0 -i 0 -k RTR
r -t 5.007637034 -s 19 -d -1 -p AODV -e 48 -c 2 -a 0 -i 0 -k RTR
+ -t 5.008064980 -s 19 -d -1 -p AODV -e 48 -c 2 -a 0 -i 0 -k RTR 
- -t 5.008064980 -s 19 -d -1 -p AODV -e 48 -c 2 -a 0 -i 0 -k RTR
h -t 5.008064980 -s 19 -d -1 -p AODV -e 48 -c 2 -a 0 -i 0 -k RTR
r -t 5.009173227 -s 3 -d -1 -p AODV -e 48 -c 2 -a 0 -i 0 -k RTR
r -t 5.009173404 -s 11 -d -1 -p AODV -e 48 -c 2 -a 0 -i 0 -k RTR
r -t 5.009173533 -s 17 -d -1 -p AODV -e 48 -c 2 -a 0 -i 0 -k RTR
r -t 5.009173585 -s 6 -d -1 -p AODV -e 48 -c 2 -a 0 -i 0 -k RTR
r -t 5.009173700 -s 9 -d -1 -p AODV -e 48 -c 2 -a 0 -i 0 -k RTR
+ -t 5.009173700 -s 9 -d 19 -p AODV -e 44 -c 2 -a 0 -i 0 -k RTR 
- -t 5.009173700 -s 9 -d 19 -p AODV -e 44 -c 2 -a 0 -i 0 -k RTR
h -t 5.009173700 -s 9 -d 19 -p AODV -e 44 -c 2 -a 0 -i 0 -k RTR
r -t 5.009173757 -s 2 -d -1 -p AODV -e 48 -c 2 -a 0 -i 0 -k RTR
r -t 5.009173789 -s 10 -d -1 -p AODV -e 48 -c 2 -a 0 -i 0 -k RTR
r -t 5.009173794 -s 23 -d -1 -p AODV -e 48 -c 2 -a 0 -i 0 -k RTR
+ -t 5.009278250 -s 3 -d -1 -p AODV -e 48 -c 2 -a 0 -i 0 -k RTR 
- -t 5.009278250 -s 3 -d -1 -p AODV -e 48 -c 2 -a 0 -i 0 -k RTR
h -t 5.009278250 -s 3 -d -1 -p AODV -e 48 -c 2 -a 0 -i 0 -k RTR
+ -t 5.010115145 -s 2 -d -1 -p AODV -e 48 -c 2 -a 0 -i 0 -k RTR 
- -t 5.010115145 -s 2 -d -1 -p AODV -e 48 -c 2 -a 0 -i 0 -k RTR
h -t 5.010115145 -s 2 -d -1 -p AODV -e 48 -c 2 -a 0 -i 0 -k RTR
+ -t 5.010471089 -s 0 -d -1 -p AODV -e 48 -c 2 -a 0 -i 0 -k RTR 
- -t 5.010471089 -s 0 -d -1 -p AODV -e 48 -c 2 -a 0 -i 0 -k RTR
h -t 5.010471089 -s 0 -d -1 -p AODV -e 48 -c 2 -a 0 -i 0 -k RTR
+ -t 5.010921637 -s 6 -d -1 -p AODV -e 48 -c 2 -a 0 -i 0 -k RTR 
- -t 5.010921637 -s 6 -d -1 -p AODV -e 48 -c 2 -a 0 -i 0 -k RTR
h -t 5.010921637 -s 6 -d -1 -p AODV -e 48 -c 2 -a 0 -i 0 -k RTR
r -t 5.013051320 -s 11 -d -1 -p AODV -e 48 -c 2 -a 0 -i 0 -k RTR
r -t 5.013051354 -s 9 -d -1 -p AODV -e 48 -c 2 -a 0 -i 0 -k RTR
r -t 5.013051494 -s 7 -d -1 -p AODV -e 48 -c 2 -a 0 -i 0 -k RTR
r -t 5.013051673 -s 16 -d -1 -p AODV -e 48 -c 2 -a 0 -i 0 -k RTR
r -t 5.013401527 -s 13 -d -1 -p AODV -e 48 -c 2 -a 0 -i 0 -k RTR
r -t 5.013401604 -s 20 -d -1 -p AODV -e 48 -c 2 -a 0 -i 0 -k RTR
r -t 5.013401759 -s 22 -d -1 -p AODV -e 48 -c 2 -a 0 -i 0 -k RTR
r -t 5.013401941 -s 18 -d -1 -p AODV -e 48 -c 2 -a 0 -i 0 -k RTR
+ -t 5.013410100 -s 17 -d -1 -p AODV -e 48 -c 2 -a 0 -i 0 -k RTR 
- -t 5.013410100 -s 17 -d -1 -p AODV -e 48 -c 2 -a 0 -i 0 -k RTR
h -t 5.013410100 -s 17 -d -1 -p AODV -e 48 -c 2 -a 0 -i 0 -k RTR
r -t 5.014354499 -s 19 -d -1 -p AODV -e 48 -c 2 -a 0 -i 0 -k RTR
r -t 5.014354502 -s 9 -d -1 -p AODV -e 48 -c 2 -a 0 -i 0 -k RTR
r -t 5.014354513 -s 4 -d -1 -p AODV -e 48 -c 2 -a 0 -i 0 -k RTR
r -t 5.014354606 -s 11 -d -1 -p AODV -e 48 -c 2 -a 0 -i 0 -k RTR
+ -t 5.014493926 -s 18 -d -1 -p AODV -e 48 -c 2 -a 0 -i 0 -k RTR 
- -t 5.014493926 -s 18 -d -1 -p AODV -e 48 -c 2 -a 0 -i 0 -k RTR
h -t 5.014493926 -s 18 -d -1 -p AODV -e 48 -c 2 -a 0 -i 0 -k RTR
+ -t 5.015463750 -s 7 -d -1 -p AODV -e 48 -c 2 -a 0 -i 0 -k RTR 
- -t 5.015463750 -s 7 -d -1 -p AODV -e 48 -c 2 -a 0 -i 0 -k RTR
h -t 5.015463750 -s 7 -d -1 -p AODV -e 48 -c 2 -a 0 -i 0 -k RTR
+ -t 5.015938662 -s 19 -d 10 -p AODV -e 44 -c 2 -a 0 -i 0 -k RTR 
- -t 5.015938662 -s 19 -d 10 -p AODV -e 44 -c 2 -a 0 -i 0 -k RTR
h -t 5.015938662 -s 19 -d 10 -p AODV -e 44 -c 2 -a 0 -i 0 -k RTR
+ -t 5.017244079 -s 23 -d -1 -p AODV -e 48 -c 2 -a 0 -i 0 -k RTR 
- -t 5.017244079 -s 23 -d -1 -p AODV -e 48 -c 2 -a 0 -i 0 -k RTR
h -t 5.017244079 -s 23 -d -1 -p AODV -e 48 -c 2 -a 0 -i 0 -k RTR
r -t 5.017361096 -s 19 -d -1 -p AODV -e 48 -c 2 -a 0 -i 0 -k RTR
r -t 5.017361377 -s 17 -d -1 -p AODV -e 48 -c 2 -a 0 -i 0 -k RTR
r -t 5.017361381 -s 11 -d -1 -p AODV -e 48 -c 2 -a 0 -i 0 -k RTR
r -t 5.017361420 -s 10 -d -1 -p AODV -e 48 -c 2 -a 0 -i 0 -k RTR
+ -t 5.017456949 -s 22 -d -1 -p AODV -e 48 -c 2 -a 0 -i 0 -k RTR 
- -t 5.017456949 -s 22 -d -1 -p AODV -e 48 -c 2 -a 0 -i 0 -k RTR
h -t 5.017456949 -s 22 -d -1 -p AODV -e 48 -c 2 -a 0 -i 0 -k RTR
+ -t 5.017770681 -s 11 -d -1 -p AODV -e 48 -c 2 -a 0 -i 0 -k RTR 
- -t 5.017770681 -s 11 -d -1 -p AODV -e 48 -c 2 -a 0 -i 0 -k RTR
h -t 5.017770681 -s 11 -d -1 -p AODV -e 48 -c 2 -a 0 -i 0 -k RTR
r -t 5.019037981 -s 23 -d -1 -p AODV -e 48 -c 2 -a 0 -i 0 -k RTR
r -t 5.019038176 -s 3 -d -1 -p AODV -e 48 -c 2 -a 0 -i 0 -k RTR
r -t 5.019038201 -s 19 -d -1 -p AODV -e 48 -c 2 -a 0 -i 0 -k RTR
r -t 5.019038254 -s 15 -d -1 -p AODV -e 48 -c 2 -a 0 -i 0 -k RTR
r -t 5.019038365 -s 4 -d -1 -p AODV -e 48 -c 2 -a 0 -i 0 -k RTR
r -t 5.019583232 -s 1 -d -1 -p AODV -e 48 -c 2 -a 0 -i 0 -k RTR
+ -t 5.020000000 -s 14 -d -1 -p cbr -e 1000 -c 2 -a 0 -i 1 -k AGT 
- -t 5.020000000 -s 14 -d -1 -p cbr -e 1000 -c 2 -a 0 -i 1 -k AGT
h -t 5.020000000 -s 14 -d -1 -p cbr -e 1000 -c 2 -a 0 -i 1 -k AGT
r -t 5.020036314 -s 17 -d -1 -p AODV -e 48 -c 2 -a 0 -i 0 -k RTR
r -t 5.020036530 -s 4 -d -1 -p AODV -e 48 -c 2 -a 0 -i 0 -k RTR
r -t 5.020036588 -s 15 -d -1 -p AODV -e 48 -c 2 -a 0 -i 0 -k RTR
r -t 5.020036794 -s 19 -d -1 -p AODV -e 48 -c 2 -a 0 -i 0 -k RTR
+ -t 5.021023846 -s 13 -d -1 -p AODV -e 48 -c 2 -a 0 -i 0 -k RTR 
- -t 5.021023846 -s 13 -d -1 -p AODV -e 48 -c 2 -a 0 -i 0 -k RTR
h -t 5.021023846 -s 13 -d -1 -p AODV -e 48 -c 2 -a 0 -i 0 -k RTR
r -t 5.021559567 -s 2 -d -1 -p AODV -e 48 -c 2 -a 0 -i 0 -k RTR
r -t 5.021559637 -s 9 -d -1 -p AODV -e 48 -c 2 -a 0 -i 0 -k RTR
r -t 5.021559637 -s 19 -d -1 -p AODV -e 48 -c 2 -a 0 -i 0 -k RTR
r -t 5.021559745 -s 3 -d -1 -p AODV -e 48 -c 2 -a 0 -i 0 -k RTR
r -t 5.021559925 -s 6 -d -1 -p AODV -e 48 -c 2 -a 0 -i 0 -k RTR
+ -t 5.021562739 -s 16 -d -1 -p AODV -e 48 -c 2 -a 0 -i 0 -k RTR 
- -t 5.021562739 -s 16 -d -1 -p AODV -e 48 -c 2 -a 0 -i 0 -k RTR
h -t 5.021562739 -s 16 -d -1 -p AODV -e 48 -c 2 -a 0 -i 0 -k RTR
r -t 5.021799654 -s 18 -d -1 -p AODV -e 48 -c 2 -a 0 -i 0 -k RTR
r -t 5.021799700 -s 20 -d -1 -p AODV -e 48 -c 2 -a 0 -i 0 -k RTR
+ -t 5.022201473 -s 1 -d -1 -p AODV -e 48 -c 2 -a 0 -i 0 -k RTR 
- -t 5.022201473 -s 1 -d -1 -p AODV -e 48 -c 2 -a 0 -i 0 -k RTR
h -t 5.022201473 -s 1 -d -1 -p AODV -e 48 -c 2 -a 0 -i 0 -k RTR
+ -t 5.022451059 -s 20 -d -1 -p AODV -e 48 -c 2 -a 0 -i 0 -k RTR 
- -t 5.022451059 -s 20 -d -1 -p AODV -e 48 -c 2 -a 0 -i 0 -k RTR
h -t 5.022451059 -s 20 -d -1 -p AODV -e 48 -c 2 -a 0 -i 0 -k RTR
+ -t 5.023228949 -s 4 -d -1 -p AODV -e 48 -c 2 -a 0 -i 0 -k RTR 
- -t 5.023228949 -s 4 -d -1 -p AODV -e 48 -c 2 -a 0 -i 0 -k RTR
h -t 5.023228949 -s 4 -d -1 -p AODV -e 48 -c 2 -a 0 -i 0 -k RTR
r -t 5.023390173 -s 5 -d -1 -p AODV -e 48 -c 2 -a 0 -i 0 -k RTR
+ -t 5.024486474 -s 15 -d -1 -p AODV -e 48 -c 2 -a 0 -i 0 -k RTR 
- -t 5.024486474 -s 15 -d -1 -p AODV -e 48 -c 2 -a 0 -i 0 -k RTR
h -t 5.024486474 -s 15 -d -1 -p AODV -e 48 -c 2 -a 0 -i 0 -k RTR
r -t 5.024670620 -s 21 -d -1 -p AODV -e 48 -c 2 -a 0 -i 0 -k RTR
r -t 5.024670702 -s 23 -d -1 -p AODV -e 48 -c 2 -a 0 -i 0 -k RTR
r -t 5.024670772 -s 6 -d -1 -p AODV -e 48 -c 2 -a 0 -i 0 -k RTR
r -t 5.024670869 -s 17 -d -1 -p AODV -e 48 -c 2 -a 0 -i 0 -k RTR
r -t 5.024930116 -s 18 -d -1 -p AODV -e 48 -c 2 -a 0 -i 0 -k RTR
r -t 5.024930121 -s 22 -d -1 -p AODV -e 48 -c 2 -a 0 -i 0 -k RTR
+ -t 5.025171954 -s 21 -d -1 -p AODV -e 48 -c 2 -a 0 -i 0 -k RTR 
- -t 5.025171954 -s 21 -d -1 -p AODV -e 48 -c 2 -a 0 -i 0 -k RTR
h -t 5.025171954 -s 21 -d -1 -p AODV -e 48 -c 2 -a 0 -i 0 -k RTR
+ -t 5.025177452 -s 5 -d -1 -p AODV -e 48 -c 2 -a 0 -i 0 -k RTR 
- -t 5.025177452 -s 5 -d -1 -p AODV -e 48 -c 2 -a 0 -i 0 -k RTR
h -t 5.025177452 -s 5 -d -1 -p AODV -e 48 -c 2 -a 0 -i 0 -k RTR
r -t 5.025974055 -s 1 -d -1 -p AODV -e 48 -c 2 -a 0 -i 0 -k RTR
r -t 5.025974082 -s 9 -d -1 -p AODV -e 48 -c 2 -a 0 -i 0 -k RTR
r -t 5.025974199 -s 5 -d -1 -p AODV -e 48 -c 2 -a 0 -i 0 -k RTR
r -t 5.025974337 -s 2 -d -1 -p AODV -e 48 -c 2 -a 0 -i 0 -k RTR
r -t 5.025974442 -s 7 -d -1 -p AODV -e 48 -c 2 -a 0 -i 0 -k RTR
r -t 5.026352278 -s 22 -d -1 -p AODV -e 48 -c 2 -a 0 -i 0 -k RTR
r -t 5.026352349 -s 20 -d -1 -p AODV -e 48 -c 2 -a 0 -i 0 -k RTR
r -t 5.026352392 -s 0 -d -1 -p AODV -e 48 -c 2 -a 0 -i 0 -k RTR
r -t 5.026352529 -s 18 -d -1 -p AODV -e 48 -c 2 -a 0 -i 0 -k RTR
r -t 5.026352763 -s 15 -d -1 -p AODV -e 48 -c 2 -a 0 -i 0 -k RTR
r -t 5.026972767 -s 16 -d -1 -p AODV -e 48 -c 2 -a 0 -i 0 -k RTR
r -t 5.026972899 -s 1 -d -1 -p AODV -e 48 -c 2 -a 0 -i 0 -k RTR
r -t 5.027391368 -s 17 -d -1 -p AODV -e 48 -c 2 -a 0 -i 0 -k RTR
r -t 5.027391370 -s 23 -d -1 -p AODV -e 48 -c 2 -a 0 -i 0 -k RTR
r -t 5.027391481 -s 13 -d -1 -p AODV -e 48 -c 2 -a 0 -i 0 -k RTR
r -t 5.027391503 -s 22 -d -1 -p AODV -e 48 -c 2 -a 0 -i 0 -k RTR
r -t 5.028854747 -s 4 -d -1 -p AODV -e 48 -c 2 -a 0 -i 0 -k RTR
+ -t 5.033270760 -s 10 -d 12 -p AODV -e 44 -c 2 -a 0 -i 0 -k RTR 
- -t 5.033270760 -s 10 -d 12 -p AODV -e 44 -c 2 -a 0 -i 0 -k RTR
h -t 5.033270760 -s 10 -d 12 -p AODV -e 44 -c 2 -a 0 -i 0 -k RTR
+ -t 5.038701874 -s 12 -d 14 -p AODV -e 44 -c 2 -a 0 -i 0 -k RTR 
- -t 5.038701874 -s 12 -d 14 -p AODV -e 44 -c 2 -a 0 -i 0 -k RTR
h -t 5.038701874 -s 12 -d 14 -p AODV -e 44 -c 2 -a 0 -i 0 -k RTR
+ -t 5.040000000 -s 14 -d -1 -p cbr -e 1000 -c 2 -a 0 -i 2 -k AGT 
- -t 5.040000000 -s 14 -d -1 -p cbr -e 1000 -c 2 -a 0 -i 2 -k AGT
h -t 5.040000000 -s 14 -d -1 -p cbr -e 1000 -c 2 -a 0 -i 2 -k AGT
+ -t 5.043794286 -s 14 -d 12 -p cbr -e 1020 -c 2 -a 0 -i 0 -k RTR 
- -t 5.043794286 -s 14 -d 12 -p cbr -e 1020 -c 2 -a 0 -i 0 -k RTR
h -t 5.043794286 -s 14 -d 12 -p cbr -e 1020 -c 2 -a 0 -i 0 -k RTR
+ -t 5.053794286 -s 14 -d 12 -p cbr -e 1020 -c 2 -a 0 -i 1 -k RTR 
- -t 5.053794286 -s 14 -d 12 -p cbr -e 1020 -c 2 -a 0 -i 1 -k RTR
h -t 5.053794286 -s 14 -d 12 -p cbr -e 1020 -c 2 -a 0 -i 1 -k RTR
+ -t 5.054040605 -s 12 -d 10 -p cbr -e 1020 -c 2 -a 0 -i 0 -k RTR 
- -t 5.054040605 -s 12 -d 10 -p cbr -e 1020 -c 2 -a 0 -i 0 -k RTR
h -t 5.054040605 -s 12 -d 10 -p cbr -e 1020 -c 2 -a 0 -i 0 -k RTR
+ -t 5.060000000 -s 14 -d -1 -p cbr -e 1000 -c 2 -a 0 -i 3 -k AGT 
- -t 5.060000000 -s 14 -d -1 -p cbr -e 1000 -c 2 -a 0 -i 3 -k AGT
h -t 5.060000000 -s 14 -d -1 -p cbr -e 1000 -c 2 -a 0 -i 3 -k AGT
+ -t 5.060000000 -s 14 -d 12 -p cbr -e 1020 -c 2 -a 0 -i 3 -k RTR 
- -t 5.060000000 -s 14 -d 12 -p cbr -e 1020 -c 2 -a 0 -i 3 -k RTR
h -t 5.060000000 -s 14 -d 12 -p cbr -e 1020 -c 2 -a 0 -i 3 -k RTR
+ -t 5.063794286 -s 14 -d 12 -p cbr -e 1020 -c 2 -a 0 -i 2 -k RTR 
- -t 5.063794286 -s 14 -d 12 -p cbr -e 1020 -c 2 -a 0 -i 2 -k RTR
h -t 5.063794286 -s 14 -d 12 -p cbr -e 1020 -c 2 -a 0 -i 2 -k RTR
+ -t 5.063867697 -s 12 -d 10 -p cbr -e 1020 -c 2 -a 0 -i 1 -k RTR 
- -t 5.063867697 -s 12 -d 10 -p cbr -e 1020 -c 2 -a 0 -i 1 -k RTR
h -t 5.063867697 -s 12 -d 10 -p cbr -e 1020 -c 2 -a 0 -i 1 -k RTR
+ -t 5.073553457 -s 10 -d 19 -p cbr -e 1020 -c 2 -a 0 -i 0 -k RTR 
- -t 5.073553457 -s 10 -d 19 -p cbr -e 1020 -c 2 -a 0 -i 0 -k RTR
h -t 5.073553457 -s 10 -d 19 -p cbr -e 1020 -c 2 -a 0 -i 0 -k RTR
+ -t 5.080000000 -s 14 -d -1 -p cbr -e 1000 -c 2 -a 0 -i 4 -k AGT 
- -t 5.080000000 -s 14 -d -1 -p cbr -e 1000 -c 2 -a 0 -i 4 -k AGT
h -t 5.080000000 -s 14 -d -1 -p cbr -e 1000 -c 2 -a 0 -i 4 -k AGT
+ -t 5.080000000 -s 14 -d 12 -p cbr -e 1020 -c 2 -a 0 -i 4 -k RTR 
- -t 5.080000000 -s 14 -d 12 -p cbr -e 1020 -c 2 -a 0 -i 4 -k RTR
h -t 5.080000000 -s 14 -d 12 -p cbr -e 1020 -c 2 -a 0 -i 4 -k RTR
+ -t 5.083339804 -s 10 -d 19 -p cbr -e 1020 -c 2 -a 0 -i 1 -k RTR 
- -t 5.083339804 -s 10 -d 19 -p cbr -e 1020 -c 2 -a 0 -i 1 -k RTR
h -t 5.083339804 -s 10 -d 19 -p cbr -e 1020 -c 2 -a 0 -i 1 -k RTR
+ -t 5.093286230 -s 19 -d 9 -p cbr -e 1020 -c 2 -a 0 -i 0 -k RTR 
- -t 5.093286230 -s 19 -d 9 -p cbr -e 1020 -c 2 -a 0 -i 0 -k RTR
h -t 5.093286230 -s 19 -d 9 -p cbr -e 1020 -c 2 -a 0 -i 0 -k RTR
+ -t 5.100000000 -s 14 -d -1 -p cbr -e 1000 -c 2 -a 0 -i 5 -k AGT 
- -t 5.100000000 -s 14 -d -1 -p cbr -e 1000 -c 2 -a 0 -i 5 -k AGT
h -t 5.100000000 -s 14 -d -1 -p cbr -e 1000 -c 2 -a 0 -i 5 -k AGT
+ -t 5.100000000 -s 14 -d 12 -p cbr -e 1020 -c 2 -a 0 -i 5 -k RTR 
- -t 5.100000000 -s 14 -d 12 -p cbr -e 1020 -c 2 -a 0 -i 5 -k RTR
h -t 5.100000000 -s 14 -d 12 -p cbr -e 1020 -c 2 -a 0 -i 5 -k RTR
+ -t 5.102953465 -s 19 -d 9 -p cbr -e 1020 -c 2 -a 0 -i 1 -k RTR 
- -t 5.102953465 -s 19 -d 9 -p cbr -e 1020 -c 2 -a 0 -i 1 -k RTR
h -t 5.102953465 -s 19 -d 9 -p cbr -e 1020 -c 2 -a 0 -i 1 -k RTR
r -t 5.112839627 -s 9 -d 9 -p cbr -e 1020 -c 2 -a 0 -i 0 -k AGT
+ -t 5.120000000 -s 14 -d -1 -p cbr -e 1000 -c 2 -a 0 -i 6 -k AGT 
- -t 5.120000000 -s 14 -d -1 -p cbr -e 1000 -c 2 -a 0 -i 6 -k AGT
h -t 5.120000000 -s 14 -d -1 -p cbr -e 1000 -c 2 -a 0 -i 6 -k AGT
+ -t 5.120000000 -s 14 -d 12 -p cbr -e 1020 -c 2 -a 0 -i 6 -k RTR 
- -t 5.120000000 -s 14 -d 12 -p cbr -e 1020 -c 2 -a 0 -i 6 -k RTR
h -t 5.120000000 -s 14 -d 12 -p cbr -e 1020 -c 2 -a 0 -i 6 -k RTR
r -t 5.122866510 -s 9 -d 9 -p cbr -e 1020 -c 2 -a 0 -i 1 -k AGT
+ -t 5.132723845 -s 12 -d 10 -p cbr -e 1020 -c 2 -a 0 -i 3 -k RTR 
- -t 5.132723845 -s 12 -d 10 -p cbr -e 1020 -c 2 -a 0 -i 3 -k RTR
h -t 5.132723845 -s 12 -d 10 -p cbr -e 1020 -c 2 -a 0 -i 3 -k RTR
+ -t 5.140000000 -s 14 -d -1 -p cbr -e 1000 -c 2 -a 0 -i 7 -k AGT 
- -t 5.140000000 -s 14 -d -1 -p cbr -e 1000 -c 2 -a 0 -i 7 -k AGT
h -t 5.140000000 -s 14 -d -1 -p cbr -e 1000 -c 2 -a 0 -i 7 -k AGT
+ -t 5.140000000 -s 14 -d 12 -p cbr -e 1020 -c 2 -a 0 -i 7 -k RTR 
- -t 5.140000000 -s 14 -d 12 -p cbr -e 1020 -c 2 -a 0 -i 7 -k RTR
h -t 5.140000000 -s 14 -d 12 -p cbr -e 1020 -c 2 -a 0 -i 7 -k RTR
+ -t 5.142809600 -s 10 -d 19 -p cbr -e 1020 -c 2 -a 0 -i 3 -k RTR 
- -t 5.142809600 -s 10 -d 19 -p cbr -e 1020 -c 2 -a 0 -i 3 -k RTR
h -t 5.142809600 -s 10 -d 19 -p cbr -e 1020 -c 2 -a 0 -i 3 -k RTR
+ -t 5.152796026 -s 19 -d 9 -p cbr -e 1020 -c 2 -a 0 -i 3 -k RTR 
- -t 5.152796026 -s 19 -d 9 -p cbr -e 1020 -c 2 -a 0 -i 3 -k RTR
h -t 5.152796026 -s 19 -d 9 -p cbr -e 1020 -c 2 -a 0 -i 3 -k RTR
+ -t 5.160000000 -s 14 -d -1 -p cbr -e 1000 -c 2 -a 0 -i 8 -k AGT 
- -t 5.160000000 -s 14 -d -1 -p cbr -e 1000 -c 2 -a 0 -i 8 -k AGT
h -t 5.160000000 -s 14 -d -1 -p cbr -e 1000 -c 2 -a 0 -i 8 -k AGT
+ -t 5.160000000 -s 14 -d 12 -p cbr -e 1020 -c 2 -a 0 -i 8 -k RTR 
- -t 5.160000000 -s 14 -d 12 -p cbr -e 1020 -c 2 -a 0 -i 8 -k RTR
h -t 5.160000000 -s 14 -d 12 -p cbr -e 1020 -c 2 -a 0 -i 8 -k RTR
r -t 5.162482189 -s 9 -d 9 -p cbr -e 1020 -c 2 -a 0 -i 3 -k AGT
+ -t 5.172299523 -s 12 -d 10 -p cbr -e 1020 -c 2 -a 0 -i 2 -k RTR 
- -t 5.172299523 -s 12 -d 10 -p cbr -e 1020 -c 2 -a 0 -i 2 -k RTR
h -t 5.172299523 -s 12 -d 10 -p cbr -e 1020 -c 2 -a 0 -i 2 -k RTR
+ -t 5.180000000 -s 14 -d -1 -p cbr -e 1000 -c 2 -a 0 -i 9 -k AGT 
- -t 5.180000000 -s 14 -d -1 -p cbr -e 1000 -c 2 -a 0 -i 9 -k AGT
h -t 5.180000000 -s 14 -d -1 -p cbr -e 1000 -c 2 -a 0 -i 9 -k AGT
+ -t 5.180000000 -s 14 -d 12 -p cbr -e 1020 -c 2 -a 0 -i 9 -k RTR 
- -t 5.180000000 -s 14 -d 12 -p cbr -e 1020 -c 2 -a 0 -i 9 -k RTR
h -t 5.180000000 -s 14 -d 12 -p cbr -e 1020 -c 2 -a 0 -i 9 -k RTR
+ -t 5.181965274 -s 10 -d 19 -p cbr -e 1020 -c 2 -a 0 -i 2 -k RTR 
- -t 5.181965274 -s 10 -d 19 -p cbr -e 1020 -c 2 -a 0 -i 2 -k RTR
h -t 5.181965274 -s 10 -d 19 -p cbr -e 1020 -c 2 -a 0 -i 2 -k RTR
+ -t 5.191891699 -s 19 -d 9 -p cbr -e 1020 -c 2 -a 0 -i 2 -k RTR 
- -t 5.191891699 -s 19 -d 9 -p cbr -e 1020 -c 2 -a 0 -i 2 -k RTR
h -t 5.191891699 -s 19 -d 9 -p cbr -e 1020 -c 2 -a 0 -i 2 -k RTR
+ -t 5.200000000 -s 14 -d -1 -p cbr -e 1000 -c 2 -a 0 -i 10 -k AGT 
- -t 5.200000000 -s 14 -d -1 -p cbr -e 1000 -c 2 -a 0 -i 10 -k AGT
h -t 5.200000000 -s 14 -d -1 -p cbr -e 1000 -c 2 -a 0 -i 10 -k AGT
+ -t 5.200000000 -s 14 -d 12 -p cbr -e 1020 -c 2 -a 0 -i 10 -k RTR 
- -t 5.200000000 -s 14 -d 12 -p cbr -e 1020 -c 2 -a 0 -i 10 -k RTR
h -t 5.200000000 -s 14 -d 12 -p cbr -e 1020 -c 2 -a 0 -i 10 -k RTR
+ -t 5.201983753 -s 12 -d 10 -p cbr -e 1020 -c 2 -a 0 -i 4 -k RTR 
- -t 5.201983753 -s 12 -d 10 -p cbr -e 1020 -c 2 -a 0 -i 4 -k RTR
h -t 5.201983753 -s 12 -d 10 -p cbr -e 1020 -c 2 -a 0 -i 4 -k RTR
+ -t 5.211670841 -s 12 -d 10 -p cbr -e 1020 -c 2 -a 0 -i 5 -k RTR 
- -t 5.211670841 -s 12 -d 10 -p cbr -e 1020 -c 2 -a 0 -i 5 -k RTR
h -t 5.211670841 -s 12 -d 10 -p cbr -e 1020 -c 2 -a 0 -i 5 -k RTR
+ -t 5.220000000 -s 14 -d -1 -p cbr -e 1000 -c 2 -a 0 -i 11 -k AGT 
- -t 5.220000000 -s 14 -d -1 -p cbr -e 1000 -c 2 -a 0 -i 11 -k AGT
h -t 5.220000000 -s 14 -d -1 -p cbr -e 1000 -c 2 -a 0 -i 11 -k AGT
+ -t 5.220000000 -s 14 -d 12 -p cbr -e 1020 -c 2 -a 0 -i 11 -k RTR 
- -t 5.220000000 -s 14 -d 12 -p cbr -e 1020 -c 2 -a 0 -i 11 -k RTR
h -t 5.220000000 -s 14 -d 12 -p cbr -e 1020 -c 2 -a 0 -i 11 -k RTR
+ -t 5.221357928 -s 12 -d 10 -p cbr -e 1020 -c 2 -a 0 -i 6 -k RTR 
- -t 5.221357928 -s 12 -d 10 -p cbr -e 1020 -c 2 -a 0 -i 6 -k RTR
h -t 5.221357928 -s 12 -d 10 -p cbr -e 1020 -c 2 -a 0 -i 6 -k RTR
+ -t 5.231085016 -s 12 -d 10 -p cbr -e 1020 -c 2 -a 0 -i 7 -k RTR 
- -t 5.231085016 -s 12 -d 10 -p cbr -e 1020 -c 2 -a 0 -i 7 -k RTR
h -t 5.231085016 -s 12 -d 10 -p cbr -e 1020 -c 2 -a 0 -i 7 -k RTR
+ -t 5.240000000 -s 14 -d -1 -p cbr -e 1000 -c 2 -a 0 -i 12 -k AGT 
- -t 5.240000000 -s 14 -d -1 -p cbr -e 1000 -c 2 -a 0 -i 12 -k AGT
h -t 5.240000000 -s 14 -d -1 -p cbr -e 1000 -c 2 -a 0 -i 12 -k AGT
+ -t 5.240000000 -s 14 -d 12 -p cbr -e 1020 -c 2 -a 0 -i 12 -k RTR 
- -t 5.240000000 -s 14 -d 12 -p cbr -e 1020 -c 2 -a 0 -i 12 -k RTR
h -t 5.240000000 -s 14 -d 12 -p cbr -e 1020 -c 2 -a 0 -i 12 -k RTR
+ -t 5.240870762 -s 10 -d 19 -p cbr -e 1020 -c 2 -a 0 -i 4 -k RTR 
- -t 5.240870762 -s 10 -d 19 -p cbr -e 1020 -c 2 -a 0 -i 4 -k RTR
h -t 5.240870762 -s 10 -d 19 -p cbr -e 1020 -c 2 -a 0 -i 4 -k RTR
+ -t 5.250557187 -s 19 -d 9 -p cbr -e 1020 -c 2 -a 0 -i 4 -k RTR 
- -t 5.250557187 -s 19 -d 9 -p cbr -e 1020 -c 2 -a 0 -i 4 -k RTR
h -t 5.250557187 -s 19 -d 9 -p cbr -e 1020 -c 2 -a 0 -i 4 -k RTR
+ -t 5.260000000 -s 14 -d -1 -p cbr -e 1000 -c 2 -a 0 -i 13 -k AGT 
- -t 5.260000000 -s 14 -d -1 -p cbr -e 1000 -c 2 -a 0 -i 13 -k AGT
h -t 5.260000000 -s 14 -d -1 -p cbr -e 1000 -c 2 -a 0 -i 13 -k AGT
+ -t 5.260000000 -s 14 -d 12 -p cbr -e 1020 -c 2 -a 0 -i 13 -k RTR 
- -t 5.260000000 -s 14 -d 12 -p cbr -e 1020 -c 2 -a 0 -i 13 -k RTR
h -t 5.260000000 -s 14 -d 12 -p cbr -e 1020 -c 2 -a 0 -i 13 -k RTR
r -t 5.260403353 -s 9 -d 9 -p cbr -e 1020 -c 2 -a 0 -i 2 -k AGT
+ -t 5.270280682 -s 12 -d 10 -p cbr -e 1020 -c 2 -a 0 -i 8 -k RTR 
- -t 5.270280682 -s 12 -d 10 -p cbr -e 1020 -c 2 -a 0 -i 8 -k RTR
h -t 5.270280682 -s 12 -d 10 -p cbr -e 1020 -c 2 -a 0 -i 8 -k RTR
+ -t 5.279966424 -s 10 -d 19 -p cbr -e 1020 -c 2 -a 0 -i 5 -k RTR 
- -t 5.279966424 -s 10 -d 19 -p cbr -e 1020 -c 2 -a 0 -i 5 -k RTR
h -t 5.279966424 -s 10 -d 19 -p cbr -e 1020 -c 2 -a 0 -i 5 -k RTR
+ -t 5.280000000 -s 14 -d -1 -p cbr -e 1000 -c 2 -a 0 -i 14 -k AGT 
- -t 5.280000000 -s 14 -d -1 -p cbr -e 1000 -c 2 -a 0 -i 14 -k AGT
h -t 5.280000000 -s 14 -d -1 -p cbr -e 1000 -c 2 -a 0 -i 14 -k AGT
+ -t 5.280000000 -s 14 -d 12 -p cbr -e 1020 -c 2 -a 0 -i 14 -k RTR 
- -t 5.280000000 -s 14 -d 12 -p cbr -e 1020 -c 2 -a 0 -i 14 -k RTR
h -t 5.280000000 -s 14 -d 12 -p cbr -e 1020 -c 2 -a 0 -i 14 -k RTR
+ -t 5.289852849 -s 19 -d 9 -p cbr -e 1020 -c 2 -a 0 -i 5 -k RTR 
- -t 5.289852849 -s 19 -d 9 -p cbr -e 1020 -c 2 -a 0 -i 5 -k RTR
h -t 5.289852849 -s 19 -d 9 -p cbr -e 1020 -c 2 -a 0 -i 5 -k RTR
r -t 5.299599016 -s 9 -d 9 -p cbr -e 1020 -c 2 -a 0 -i 4 -k AGT
+ -t 5.300000000 -s 14 -d -1 -p cbr -e 1000 -c 2 -a 0 -i 15 -k AGT 
- -t 5.300000000 -s 14 -d -1 -p cbr -e 1000 -c 2 -a 0 -i 15 -k AGT
h -t 5.300000000 -s 14 -d -1 -p cbr -e 1000 -c 2 -a 0 -i 15 -k AGT
+ -t 5.300000000 -s 14 -d 12 -p cbr -e 1020 -c 2 -a 0 -i 15 -k RTR 
- -t 5.300000000 -s 14 -d 12 -p cbr -e 1020 -c 2 -a 0 -i 15 -k RTR
h -t 5.300000000 -s 14 -d 12 -p cbr -e 1020 -c 2 -a 0 -i 15 -k RTR
r -t 5.309445906 -s 9 -d 9 -p cbr -e 1020 -c 2 -a 0 -i 5 -k AGT
+ -t 5.319423232 -s 12 -d 10 -p cbr -e 1020 -c 2 -a 0 -i 9 -k RTR 
- -t 5.319423232 -s 12 -d 10 -p cbr -e 1020 -c 2 -a 0 -i 9 -k RTR
h -t 5.319423232 -s 12 -d 10 -p cbr -e 1020 -c 2 -a 0 -i 9 -k RTR
+ -t 5.320000000 -s 14 -d -1 -p cbr -e 1000 -c 2 -a 0 -i 16 -k AGT 
- -t 5.320000000 -s 14 -d -1 -p cbr -e 1000 -c 2 -a 0 -i 16 -k AGT
h -t 5.320000000 -s 14 -d -1 -p cbr -e 1000 -c 2 -a 0 -i 16 -k AGT
+ -t 5.320000000 -s 14 -d 12 -p cbr -e 1020 -c 2 -a 0 -i 16 -k RTR 
- -t 5.320000000 -s 14 -d 12 -p cbr -e 1020 -c 2 -a 0 -i 16 -k RTR
h -t 5.320000000 -s 14 -d 12 -p cbr -e 1020 -c 2 -a 0 -i 16 -k RTR
+ -t 5.329270317 -s 12 -d 10 -p cbr -e 1020 -c 2 -a 0 -i 10 -k RTR 
- -t 5.329270317 -s 12 -d 10 -p cbr -e 1020 -c 2 -a 0 -i 10 -k RTR
h -t 5.329270317 -s 12 -d 10 -p cbr -e 1020 -c 2 -a 0 -i 10 -k RTR
+ -t 5.339036054 -s 10 -d 19 -p cbr -e 1020 -c 2 -a 0 -i 6 -k RTR 
- -t 5.339036054 -s 10 -d 19 -p cbr -e 1020 -c 2 -a 0 -i 6 -k RTR
h -t 5.339036054 -s 10 -d 19 -p cbr -e 1020 -c 2 -a 0 -i 6 -k RTR
+ -t 5.340000000 -s 14 -d -1 -p cbr -e 1000 -c 2 -a 0 -i 17 -k AGT 
- -t 5.340000000 -s 14 -d -1 -p cbr -e 1000 -c 2 -a 0 -i 17 -k AGT
h -t 5.340000000 -s 14 -d -1 -p cbr -e 1000 -c 2 -a 0 -i 17 -k AGT
+ -t 5.340000000 -s 14 -d 12 -p cbr -e 1020 -c 2 -a 0 -i 17 -k RTR 
- -t 5.340000000 -s 14 -d 12 -p cbr -e 1020 -c 2 -a 0 -i 17 -k RTR
h -t 5.340000000 -s 14 -d 12 -p cbr -e 1020 -c 2 -a 0 -i 17 -k RTR
+ -t 5.348802479 -s 19 -d 9 -p cbr -e 1020 -c 2 -a 0 -i 6 -k RTR 
- -t 5.348802479 -s 19 -d 9 -p cbr -e 1020 -c 2 -a 0 -i 6 -k RTR
h -t 5.348802479 -s 19 -d 9 -p cbr -e 1020 -c 2 -a 0 -i 6 -k RTR
r -t 5.358668648 -s 9 -d 9 -p cbr -e 1020 -c 2 -a 0 -i 6 -k AGT
+ -t 5.360000000 -s 14 -d -1 -p cbr -e 1000 -c 2 -a 0 -i 18 -k AGT 
- -t 5.360000000 -s 14 -d -1 -p cbr -e 1000 -c 2 -a 0 -i 18 -k AGT
h -t 5.360000000 -s 14 -d -1 -p cbr -e 1000 -c 2 -a 0 -i 18 -k AGT
+ -t 5.360000000 -s 14 -d 12 -p cbr -e 1020 -c 2 -a 0 -i 18 -k RTR 
- -t 5.360000000 -s 14 -d 12 -p cbr -e 1020 -c 2 -a 0 -i 18 -k RTR
h -t 5.360000000 -s 14 -d 12 -p cbr -e 1020 -c 2 -a 0 -i 18 -k RTR
+ -t 5.368445972 -s 12 -d 10 -p cbr -e 1020 -c 2 -a 0 -i 11 -k RTR 
- -t 5.368445972 -s 12 -d 10 -p cbr -e 1020 -c 2 -a 0 -i 11 -k RTR
h -t 5.368445972 -s 12 -d 10 -p cbr -e 1020 -c 2 -a 0 -i 11 -k RTR
+ -t 5.378113055 -s 12 -d 10 -p cbr -e 1020 -c 2 -a 0 -i 12 -k RTR 
- -t 5.378113055 -s 12 -d 10 -p cbr -e 1020 -c 2 -a 0 -i 12 -k RTR
h -t 5.378113055 -s 12 -d 10 -p cbr -e 1020 -c 2 -a 0 -i 12 -k RTR
+ -t 5.380000000 -s 14 -d -1 -p cbr -e 1000 -c 2 -a 0 -i 19 -k AGT 
- -t 5.380000000 -s 14 -d -1 -p cbr -e 1000 -c 2 -a 0 -i 19 -k AGT
h -t 5.380000000 -s 14 -d -1 -p cbr -e 1000 -c 2 -a 0 -i 19 -k AGT
+ -t 5.380000000 -s 14 -d 12 -p cbr -e 1020 -c 2 -a 0 -i 19 -k RTR 
- -t 5.380000000 -s 14 -d 12 -p cbr -e 1020 -c 2 -a 0 -i 19 -k RTR
h -t 5.380000000 -s 14 -d 12 -p cbr -e 1020 -c 2 -a 0 -i 19 -k RTR
+ -t 5.387938788 -s 10 -d 19 -p cbr -e 1020 -c 2 -a 0 -i 7 -k RTR 
- -t 5.387938788 -s 10 -d 19 -p cbr -e 1020 -c 2 -a 0 -i 7 -k RTR
h -t 5.387938788 -s 10 -d 19 -p cbr -e 1020 -c 2 -a 0 -i 7 -k RTR
+ -t 5.398165212 -s 19 -d 9 -p cbr -e 1020 -c 2 -a 0 -i 7 -k RTR 
- -t 5.398165212 -s 19 -d 9 -p cbr -e 1020 -c 2 -a 0 -i 7 -k RTR
h -t 5.398165212 -s 19 -d 9 -p cbr -e 1020 -c 2 -a 0 -i 7 -k RTR
+ -t 5.400000000 -s 14 -d -1 -p cbr -e 1000 -c 2 -a 0 -i 20 -k AGT 
- -t 5.400000000 -s 14 -d -1 -p cbr -e 1000 -c 2 -a 0 -i 20 -k AGT
h -t 5.400000000 -s 14 -d -1 -p cbr -e 1000 -c 2 -a 0 -i 20 -k AGT
+ -t 5.400000000 -s 14 -d 12 -p cbr -e 1020 -c 2 -a 0 -i 20 -k RTR 
- -t 5.400000000 -s 14 -d 12 -p cbr -e 1020 -c 2 -a 0 -i 20 -k RTR
h -t 5.400000000 -s 14 -d 12 -p cbr -e 1020 -c 2 -a 0 -i 20 -k RTR
+ -t 5.408236321 -s 10 -d 19 -p cbr -e 1020 -c 2 -a 0 -i 8 -k RTR 
- -t 5.408236321 -s 10 -d 19 -p cbr -e 1020 -c 2 -a 0 -i 8 -k RTR
h -t 5.408236321 -s 10 -d 19 -p cbr -e 1020 -c 2 -a 0 -i 8 -k RTR
+ -t 5.418042628 -s 10 -d 19 -p cbr -e 1020 -c 2 -a 0 -i 9 -k RTR 
- -t 5.418042628 -s 10 -d 19 -p cbr -e 1020 -c 2 -a 0 -i 9 -k RTR
h -t 5.418042628 -s 10 -d 19 -p cbr -e 1020 -c 2 -a 0 -i 9 -k RTR
+ -t 5.420000000 -s 14 -d -1 -p cbr -e 1000 -c 2 -a 0 -i 21 -k AGT 
- -t 5.420000000 -s 14 -d -1 -p cbr -e 1000 -c 2 -a 0 -i 21 -k AGT
h -t 5.420000000 -s 14 -d -1 -p cbr -e 1000 -c 2 -a 0 -i 21 -k AGT
+ -t 5.420000000 -s 14 -d 12 -p cbr -e 1020 -c 2 -a 0 -i 21 -k RTR 
- -t 5.420000000 -s 14 -d 12 -p cbr -e 1020 -c 2 -a 0 -i 21 -k RTR
h -t 5.420000000 -s 14 -d 12 -p cbr -e 1020 -c 2 -a 0 -i 21 -k RTR
r -t 5.427859600 -s 9 -d 9 -p cbr -e 1020 -c 2 -a 0 -i 7 -k AGT
+ -t 5.437756921 -s 12 -d 10 -p cbr -e 1020 -c 2 -a 0 -i 13 -k RTR 
- -t 5.437756921 -s 12 -d 10 -p cbr -e 1020 -c 2 -a 0 -i 13 -k RTR
h -t 5.437756921 -s 12 -d 10 -p cbr -e 1020 -c 2 -a 0 -i 13 -k RTR
+ -t 5.440000000 -s 14 -d -1 -p cbr -e 1000 -c 2 -a 0 -i 22 -k AGT 
- -t 5.440000000 -s 14 -d -1 -p cbr -e 1000 -c 2 -a 0 -i 22 -k AGT
h -t 5.440000000 -s 14 -d -1 -p cbr -e 1000 -c 2 -a 0 -i 22 -k AGT
+ -t 5.440000000 -s 14 -d 12 -p cbr -e 1020 -c 2 -a 0 -i 22 -k RTR 
- -t 5.440000000 -s 14 -d 12 -p cbr -e 1020 -c 2 -a 0 -i 22 -k RTR
h -t 5.440000000 -s 14 -d 12 -p cbr -e 1020 -c 2 -a 0 -i 22 -k RTR
+ -t 5.447522648 -s 10 -d 19 -p cbr -e 1020 -c 2 -a 0 -i 10 -k RTR 
- -t 5.447522648 -s 10 -d 19 -p cbr -e 1020 -c 2 -a 0 -i 10 -k RTR
h -t 5.447522648 -s 10 -d 19 -p cbr -e 1020 -c 2 -a 0 -i 10 -k RTR