M 0.00000 0 (105.00, 206.00, 0.00), (130.00, 208.00), 5.00
M 0.00000 1 (805.00, 742.00, 0.00), (485.00, 128.00), 5.00
M 0.00000 8 (258.00, 646.00, 0.00), (335.00, 700.00), 5.00
M 0.00000 11 (495.00, 502.00, 0.00), (565.00, 420.00), 5.00
M 0.00000 17 (435.00, 186.00, 0.00), (765.00, 320.00), 5.00
M 0.00000 22 (125.00, 10.00, 0.00), (109.00, 100.00), 5.00
M 0.00000 23 (505.00, 90.00, 0.00), (800.00, 800.00), 5.00
M 1.00000 2 (525.00, 606.00, 0.00), (615.00, 340.00), 5.00
M 1.00000 3 (405.00, 342.00, 0.00), (680.00, 458.00), 5.00
M 1.00000 7 (555.00, 762.00, 0.00), (185.00, 120.00), 5.00
M 1.00000 12 (75.00, 462.00, 0.00), (700.00, 20.00), 5.00
M 1.00000 13 (145.00, 119.00, 0.00), (115.00, 85.00), 5.00
M 1.00000 14 (85.00, 702.00, 0.00), (195.00, 185.00), 5.00
M 1.00000 15 (340.00, 36.00, 0.00), (387.00, 590.00), 5.00
M 1.00000 18 (5.00, 2.00, 0.00), (109.00, 20.00), 5.00
M 1.00000 19 (515.00, 366.00, 0.00), (175.00, 185.00), 5.00
M 2.00000 6 (675.00, 336.00, 0.00), (750.00, 638.00), 5.00
M 2.00000 9 (645.00, 522.00, 0.00), (425.00, 590.00), 5.00
M 2.00000 10 (265.00, 376.00, 0.00), (105.00, 620.00), 5.00
M 2.00000 16 (758.00, 602.00, 0.00), (165.00, 620.00), 5.00
M 3.00000 4 (675.00, 156.00, 0.00), (580.00, 368.00), 5.00
M 3.00000 5 (905.00, 549.00, 0.00), (785.00, 228.00), 5.00
M 3.00000 20 (33.00, 111.00, 0.00), (200.00, 225.00), 5.00
M 3.00000 21 (805.00, 100.00, 0.00), (765.00, 100.00), 5.00
s 5.000000000 _14_ AGT  --- 0 cbr 1000 [0 0 0 0] ------- [14:0 9:0 32 0] [0] 0 0
r 5.000000000 _14_ RTR  --- 0 cbr 1000 [0 0 0 0] ------- [14:0 9:0 32 0] [0] 0 0
s 5.000000000 _14_ RTR  --- 0 AODV 48 [0 0 0 0] ------- [14:255 -1:255 30 0] [0x2 1 1 [9 0] [14 4]] (REQUEST)
r 5.001408635 _8_ RTR  --- 0 AODV 48 [0 ffffffff e 800] ------- [14:255 -1:255 30 0] [0x2 1 1 [9 0] [14 4]] (REQUEST)
r 5.001408773 _12_ RTR  --- 0 AODV 48 [0 ffffffff e 800] ------- [14:255 -1:255 30 0] [0x2 1 1 [9 0] [14 4]] (REQUEST)
s 5.001550682 _8_ RTR  --- 0 AODV 48 [0 ffffffff e 800] ------- [8:255 -1:255 29 0] [0x2 2 1 [9 0] [14 4]] (REQUEST)
s 5.002290000 _12_ RTR  --- 0 AODV 48 [0 ffffffff e 800] ------- [12:255 -1:255 29 0] [0x2 2 1 [9 0] [14 4]] (REQUEST)
r 5.002819317 _14_ RTR  --- 0 AODV 48 [0 ffffffff 8 800] ------- [8:255 -1:255 29 0] [0x2 2 1 [9 0] [14 4]] (REQUEST)
r 5.004082208 _10_ RTR  --- 0 AODV 48 [0 ffffffff c 800] ------- [12:255 -1:255 29 0] [0x2 2 1 [9 0] [14 4]] (REQUEST)
r 5.004082393 _14_ RTR  --- 0 AODV 48 [0 ffffffff c 800] ------- [12:255 -1:255 29 0] [0x2 2 1 [9 0] [14 4]] (REQUEST)
r 5.004082438 _0_ RTR  --- 0 AODV 48 [0 ffffffff c 800] ------- [12:255 -1:255 29 0] [0x2 2 1 [9 0] [14 4]] (REQUEST)
s 5.006428226 _10_ RTR  --- 0 AODV 48 [0 ffffffff c 800] ------- [10:255 -1:255 28 0] [0x2 3 1 [9 0] [14 4]] (REQUEST)
r 5.007636796 _3_ RTR  --- 0 AODV 48 [0 ffffffff a 800] ------- [10:255 -1:255 28 0] [0x2 3 1 [9 0] [14 4]] (REQUEST)
r 5.007636814 _12_ RTR  --- 0 AODV 48 [0 ffffffff a 800] ------- [10:255 -1:255 28 0] [0x2 3 1 [9 0] [14 4]] (REQUEST)
r 5.007636961 _0_ RTR  --- 0 AODV 48 [0 ffffffff a 800] ------- [10:255 -1:255 28 0] [0x2 3 1 [9 0] [14 4]] (REQUEST)
r 5.007637034 _19_ RTR  --- 0 AODV 48 [0 ffffffff a 800] ------- [10:255 -1:255 28 0] [0x2 3 1 [9 0] [14 4]] (REQUEST)
s 5.008064980 _19_ RTR  --- 0 AODV 48 [0 ffffffff a 800] ------- [19:255 -1:255 27 0] [0x2 4 1 [9 0] [14 4]] (REQUEST)
r 5.009173227 _3_ RTR  --- 0 AODV 48 [0 ffffffff 13 800] ------- [19:255 -1:255 27 0] [0x2 4 1 [9 0] [14 4]] (REQUEST)
r 5.009173404 _11_ RTR  --- 0 AODV 48 [0 ffffffff 13 800] ------- [19:255 -1:255 27 0] [0x2 4 1 [9 0] [14 4]] (REQUEST)
r 5.009173533 _17_ RTR  --- 0 AODV 48 [0 ffffffff 13 800] ------- [19:255 -1:255 27 0] [0x2 4 1 [9 0] [14 4]] (REQUEST)
r 5.009173585 _6_ RTR  --- 0 AODV 48 [0 ffffffff 13 800] ------- [19:255 -1:255 27 0] [0x2 4 1 [9 0] [14 4]] (REQUEST)
r 5.009173700 _9_ RTR  --- 0 AODV 48 [0 ffffffff 13 800] ------- [19:255 -1:255 27 0] [0x2 4 1 [9 0] [14 4]] (REQUEST)
s 5.009173700 _9_ RTR  --- 0 AODV 44 [0 0 0 0] ------- [9:255 14:255 30 19] [0x4 1 [9 4] 10.000000] (REPLY)
r 5.009173757 _2_ RTR  --- 0 AODV 48 [0 ffffffff 13 800] ------- [19:255 -1:255 27 0] [0x2 4 1 [9 0] [14 4]] (REQUEST)
r 5.009173789 _10_ RTR  --- 0 AODV 48 [0 ffffffff 13 800] ------- [19:255 -1:255 27 0] [0x2 4 1 [9 0] [14 4]] (REQUEST)
r 5.009173794 _23_ RTR  --- 0 AODV 48 [0 ffffffff 13 800] ------- [19:255 -1:255 27 0] [0x2 4 1 [9 0] [14 4]] (REQUEST)
s 5.009278250 _3_ RTR  --- 0 AODV 48 [0 ffffffff a 800] ------- [3:255 -1:255 27 0] [0x2 4 1 [9 0] [14 4]] (REQUEST)
s 5.010115145 _2_ RTR  --- 0 AODV 48 [0 ffffffff 13 800] ------- [2:255 -1:255 26 0] [0x2 5 1 [9 0] [14 4]] (REQUEST)
s 5.010471089 _0_ RTR  --- 0 AODV 48 [0 ffffffff c 800] ------- [0:255 -1:255 28 0] [0x2 3 1 [9 0] [14 4]] (REQUEST)
s 5.010921637 _6_ RTR  --- 0 AODV 48 [0 ffffffff 13 800] ------- [6:255 -1:255 26 0] [0x2 5 1 [9 0] [14 4]] (REQUEST)
r 5.013051320 _11_ RTR  --- 0 AODV 48 [0 ffffffff 2 800] ------- [2:255 -1:255 26 0] [0x2 5 1 [9 0] [14 4]] (REQUEST)
r 5.013051354 _9_ RTR  --- 0 AODV 48 [0 ffffffff 2 800] ------- [2:255 -1:255 26 0] [0x2 5 1 [9 0] [14 4]] (REQUEST)
r 5.013051494 _7_ RTR  --- 0 AODV 48 [0 ffffffff 2 800] ------- [2:255 -1:255 26 0] [0x2 5 1 [9 0] [14 4]] (REQUEST)
r 5.013051673 _16_ RTR  --- 0 AODV 48 [0 ffffffff 2 800] ------- [2:255 -1:255 26 0] [0x2 5 1 [9 0] [14 4]] (REQUEST)
r 5.013401527 _13_ RTR  --- 0 AODV 48 [0 ffffffff 0 800] ------- [0:255 -1:255 28 0] [0x2 3 1 [9 0] [14 4]] (REQUEST)
r 5.013401604 _20_ RTR  --- 0 AODV 48 [0 ffffffff 0 800] ------- [0:255 -1:255 28 0] [0x2 3 1 [9 0] [14 4]] (REQUEST)
r 5.013401759 _22_ RTR  --- 0 AODV 48 [0 ffffffff 0 800] ------- [0:255 -1:255 28 0] [0x2 3 1 [9 0] [14 4]] (REQUEST)
r 5.013401941 _18_ RTR  --- 0 AODV 48 [0 ffffffff 0 800] ------- [0:255 -1:255 28 0] [0x2 3 1 [9 0] [14 4]] (REQUEST)
s 5.013410100 _17_ RTR  --- 0 AODV 48 [0 ffffffff 13 800] ------- [17:255 -1:255 26 0] [0x2 5 1 [9 0] [14 4]] (REQUEST)
r 5.014354499 _19_ RTR  --- 0 AODV 48 [0 ffffffff 6 800] ------- [6:255 -1:255 26 0] [0x2 5 1 [9 0] [14 4]] (REQUEST)
r 5.014354502 _9_ RTR  --- 0 AODV 48 [0 ffffffff 6 800] ------- [6:255 -1:255 26 0] [0x2 5 1 [9 0] [14 4]] (REQUEST)
r 5.014354513 _4_ RTR  --- 0 AODV 48 [0 ffffffff 6 800] ------- [6:255 -1:255 26 0] [0x2 5 1 [9 0] [14 4]] (REQUEST)
r 5.014354606 _11_ RTR  --- 0 AODV 48 [0 ffffffff 6 800] ------- [6:255 -1:255 26 0] [0x2 5 1 [9 0] [14 4]] (REQUEST)
s 5.014493926 _18_ RTR  --- 0 AODV 48 [0 ffffffff 0 800] ------- [18:255 -1:255 27 0] [0x2 4 1 [9 0] [14 4]] (REQUEST)
s 5.015463750 _7_ RTR  --- 0 AODV 48 [0 ffffffff 2 800] ------- [7:255 -1:255 25 0] [0x2 6 1 [9 0] [14 4]] (REQUEST)
r 5.015938662 _19_ RTR  --- 0 AODV 44 [13a 13 9 800] ------- [9:255 14:255 30 19] [0x4 1 [9 4] 10.000000] (REPLY)
f 5.015938662 _19_ RTR  --- 0 AODV 44 [13a 13 9 800] ------- [9:255 14:255 29 10] [0x4 2 [9 4] 10.000000] (REPLY)
s 5.017244079 _23_ RTR  --- 0 AODV 48 [0 ffffffff 13 800] ------- [23:255 -1:255 26 0] [0x2 5 1 [9 0] [14 4]] (REQUEST)
r 5.017361096 _19_ RTR  --- 0 AODV 48 [0 ffffffff 3 800] ------- [3:255 -1:255 27 0] [0x2 4 1 [9 0] [14 4]] (REQUEST)
r 5.017361377 _17_ RTR  --- 0 AODV 48 [0 ffffffff 3 800] ------- [3:255 -1:255 27 0] [0x2 4 1 [9 0] [14 4]] (REQUEST)
r 5.017361381 _11_ RTR  --- 0 AODV 48 [0 ffffffff 3 800] ------- [3:255 -1:255 27 0] [0x2 4 1 [9 0] [14 4]] (REQUEST)
r 5.017361420 _10_ RTR  --- 0 AODV 48 [0 ffffffff 3 800] ------- [3:255 -1:255 27 0] [0x2 4 1 [9 0] [14 4]] (REQUEST)
s 5.017456949 _22_ RTR  --- 0 AODV 48 [0 ffffffff 0 800] ------- [22:255 -1:255 27 0] [0x2 4 1 [9 0] [14 4]] (REQUEST)
s 5.017770681 _11_ RTR  --- 0 AODV 48 [0 ffffffff 13 800] ------- [11:255 -1:255 26 0] [0x2 5 1 [9 0] [14 4]] (REQUEST)
r 5.019037981 _23_ RTR  --- 0 AODV 48 [0 ffffffff 11 800] ------- [17:255 -1:255 26 0] [0x2 5 1 [9 0] [14 4]] (REQUEST)
r 5.019038176 _3_ RTR  --- 0 AODV 48 [0 ffffffff 11 800] ------- [17:255 -1:255 26 0] [0x2 5 1 [9 0] [14 4]] (REQUEST)
r 5.019038201 _19_ RTR  --- 0 AODV 48 [0 ffffffff 11 800] ------- [17:255 -1:255 26 0] [0x2 5 1 [9 0] [14 4]] (REQUEST)
r 5.019038254 _15_ RTR  --- 0 AODV 48 [0 ffffffff 11 800] ------- [17:255 -1:255 26 0] [0x2 5 1 [9 0] [14 4]] (REQUEST)
r 5.019038365 _4_ RTR  --- 0 AODV 48 [0 ffffffff 11 800] ------- [17:255 -1:255 26 0] [0x2 5 1 [9 0] [14 4]] (REQUEST)
r 5.019583232 _1_ RTR  --- 0 AODV 48 [0 ffffffff 7 800] ------- [7:255 -1:255 25 0] [0x2 6 1 [9 0] [14 4]] (REQUEST)
s 5.020000000 _14_ AGT  --- 1 cbr 1000 [0 0 0 0] ------- [14:0 9:0 32 0] [1] 0 0
r 5.020000000 _14_ RTR  --- 1 cbr 1000 [0 0 0 0] ------- [14:0 9:0 32 0] [1] 0 0
r 5.020036314 _17_ RTR  --- 0 AODV 48 [0 ffffffff 17 800] ------- [23:255 -1:255 26 0] [0x2 5 1 [9 0] [14 4]] (REQUEST)
r 5.020036530 _4_ RTR  --- 0 AODV 48 [0 ffffffff 17 800] ------- [23:255 -1:255 26 0] [0x2 5 1 [9 0] [14 4]] (REQUEST)
r 5.020036588 _15_ RTR  --- 0 AODV 48 [0 ffffffff 17 800] ------- [23:255 -1:255 26 0] [0x2 5 1 [9 0] [14 4]] (REQUEST)
r 5.020036794 _19_ RTR  --- 0 AODV 48 [0 ffffffff 17 800] ------- [23:255 -1:255 26 0] [0x2 5 1 [9 0] [14 4]] (REQUEST)
s 5.021023846 _13_ RTR  --- 0 AODV 48 [0 ffffffff 0 800] ------- [13:255 -1:255 27 0] [0x2 4 1 [9 0] [14 4]] (REQUEST)
r 5.021559567 _2_ RTR  --- 0 AODV 48 [0 ffffffff b 800] ------- [11:255 -1:255 26 0] [0x2 5 1 [9 0] [14 4]] (REQUEST)
r 5.021559637 _9_ RTR  --- 0 AODV 48 [0 ffffffff b 800] ------- [11:255 -1:255 26 0] [0x2 5 1 [9 0] [14 4]] (REQUEST)
r 5.021559637 _19_ RTR  --- 0 AODV 48 [0 ffffffff b 800] ------- [11:255 -1:255 26 0] [0x2 5 1 [9 0] [14 4]] (REQUEST)
r 5.021559745 _3_ RTR  --- 0 AODV 48 [0 ffffffff b 800] ------- [11:255 -1:255 26 0] [0x2 5 1 [9 0] [14 4]] (REQUEST)
r 5.021559925 _6_ RTR  --- 0 AODV 48 [0 ffffffff b 800] ------- [11:255 -1:255 26 0] [0x2 5 1 [9 0] [14 4]] (REQUEST)
s 5.021562739 _16_ RTR  --- 0 AODV 48 [0 ffffffff 2 800] ------- [16:255 -1:255 25 0] [0x2 6 1 [9 0] [14 4]] (REQUEST)
r 5.021799654 _18_ RTR  --- 0 AODV 48 [0 ffffffff 16 800] ------- [22:255 -1:255 27 0] [0x2 4 1 [9 0] [14 4]] (REQUEST)
r 5.021799700 _20_ RTR  --- 0 AODV 48 [0 ffffffff 16 800] ------- [22:255 -1:255 27 0] [0x2 4 1 [9 0] [14 4]] (REQUEST)
s 5.022201473 _1_ RTR  --- 0 AODV 48 [0 ffffffff 7 800] ------- [1:255 -1:255 24 0] [0x2 7 1 [9 0] [14 4]] (REQUEST)
s 5.022451059 _20_ RTR  --- 0 AODV 48 [0 ffffffff 0 800] ------- [20:255 -1:255 27 0] [0x2 4 1 [9 0] [14 4]] (REQUEST)
s 5.023228949 _4_ RTR  --- 0 AODV 48 [0 ffffffff 6 800] ------- [4:255 -1:255 25 0] [0x2 6 1 [9 0] [14 4]] (REQUEST)
r 5.023390173 _5_ RTR  --- 0 AODV 48 [0 ffffffff 1 800] ------- [1:255 -1:255 24 0] [0x2 7 1 [9 0] [14 4]] (REQUEST)
s 5.024486474 _15_ RTR  --- 0 AODV 48 [0 ffffffff 11 800] ------- [15:255 -1:255 25 0] [0x2 6 1 [9 0] [14 4]] (REQUEST)
r 5.024670620 _21_ RTR  --- 0 AODV 48 [0 ffffffff 4 800] ------- [4:255 -1:255 25 0] [0x2 6 1 [9 0] [14 4]] (REQUEST)
r 5.024670702 _23_ RTR  --- 0 AODV 48 [0 ffffffff 4 800] ------- [4:255 -1:255 25 0] [0x2 6 1 [9 0] [14 4]] (REQUEST)
r 5.024670772 _6_ RTR  --- 0 AODV 48 [0 ffffffff 4 800] ------- [4:255 -1:255 25 0] [0x2 6 1 [9 0] [14 4]] (REQUEST)
r 5.024670869 _17_ RTR  --- 0 AODV 48 [0 ffffffff 4 800] ------- [4:255 -1:255 25 0] [0x2 6 1 [9 0] [14 4]] (REQUEST)
r 5.024930116 _18_ RTR  --- 0 AODV 48 [0 ffffffff 14 800] ------- [20:255 -1:255 27 0] [0x2 4 1 [9 0] [14 4]] (REQUEST)
r 5.024930121 _22_ RTR  --- 0 AODV 48 [0 ffffffff 14 800] ------- [20:255 -1:255 27 0] [0x2 4 1 [9 0] [14 4]] (REQUEST)
s 5.025171954 _21_ RTR  --- 0 AODV 48 [0 ffffffff 4 800] ------- [21:255 -1:255 24 0] [0x2 7 1 [9 0] [14 4]] (REQUEST)
s 5.025177452 _5_ RTR  --- 0 AODV 48 [0 ffffffff 1 800] ------- [5:255 -1:255 23 0] [0x2 8 1 [9 0] [14 4]] (REQUEST)
r 5.025974055 _1_ RTR  --- 0 AODV 48 [0 ffffffff 10 800] ------- [16:255 -1:255 25 0] [0x2 6 1 [9 0] [14 4]] (REQUEST)
r 5.025974082 _9_ RTR  --- 0 AODV 48 [0 ffffffff 10 800] ------- [16:255 -1:255 25 0] [0x2 6 1 [9 0] [14 4]] (REQUEST)
r 5.025974199 _5_ RTR  --- 0 AODV 48 [0 ffffffff 10 800] ------- [16:255 -1:255 25 0] [0x2 6 1 [9 0] [14 4]] (REQUEST)
r 5.025974337 _2_ RTR  --- 0 AODV 48 [0 ffffffff 10 800] ------- [16:255 -1:255 25 0] [0x2 6 1 [9 0] [14 4]] (REQUEST)
r 5.025974442 _7_ RTR  --- 0 AODV 48 [0 ffffffff 10 800] ------- [16:255 -1:255 25 0] [0x2 6 1 [9 0] [14 4]] (REQUEST)
r 5.026352278 _22_ RTR  --- 0 AODV 48 [0 ffffffff d 800] ------- [13:255 -1:255 27 0] [0x2 4 1 [9 0] [14 4]] (REQUEST)
r 5.026352349 _20_ RTR  --- 0 AODV 48 [0 ffffffff d 800] ------- [13:255 -1:255 27 0] [0x2 4 1 [9 0] [14 4]] (REQUEST)
r 5.026352392 _0_ RTR  --- 0 AODV 48 [0 ffffffff d 800] ------- [13:255 -1:255 27 0] [0x2 4 1 [9 0] [14 4]] (REQUEST)
r 5.026352529 _18_ RTR  --- 0 AODV 48 [0 ffffffff d 800] ------- [13:255 -1:255 27 0] [0x2 4 1 [9 0] [14 4]] (REQUEST)
r 5.026352763 _15_ RTR  --- 0 AODV 48 [0 ffffffff d 800] ------- [13:255 -1:255 27 0] [0x2 4 1 [9 0] [14 4]] (REQUEST)
r 5.026972767 _16_ RTR  --- 0 AODV 48 [0 ffffffff 5 800] ------- [5:255 -1:255 23 0] [0x2 8 1 [9 0] [14 4]] (REQUEST)
r 5.026972899 _1_ RTR  --- 0 AODV 48 [0 ffffffff 5 800] ------- [5:255 -1:255 23 0] [0x2 8 1 [9 0] [14 4]] (REQUEST)
r 5.027391368 _17_ RTR  --- 0 AODV 48 [0 ffffffff f 800] ------- [15:255 -1:255 25 0] [0x2 6 1 [9 0] [14 4]] (REQUEST)
r 5.027391370 _23_ RTR  --- 0 AODV 48 [0 ffffffff f 800] ------- [15:255 -1:255 25 0] [0x2 6 1 [9 0] [14 4]] (REQUEST)
r 5.027391481 _13_ RTR  --- 0 AODV 48 [0 ffffffff f 800] ------- [15:255 -1:255 25 0] [0x2 6 1 [9 0] [14 4]] (REQUEST)
r 5.027391503 _22_ RTR  --- 0 AODV 48 [0 ffffffff f 800] ------- [15:255 -1:255 25 0] [0x2 6 1 [9 0] [14 4]] (REQUEST)
r 5.028854747 _4_ RTR  --- 0 AODV 48 [0 ffffffff 15 800] ------- [21:255 -1:255 24 0] [0x2 7 1 [9 0] [14 4]] (REQUEST)
r 5.033270760 _10_ RTR  --- 0 AODV 44 [13a a 13 800] ------- [9:255 14:255 29 10] [0x4 2 [9 4] 10.000000] (REPLY)
f 5.033270760 _10_ RTR  --- 0 AODV 44 [13a a 13 800] ------- [9:255 14:255 28 12] [0x4 3 [9 4] 10.000000] (REPLY)
r 5.038701874 _12_ RTR  --- 0 AODV 44 [13a c a 800] ------- [9:255 14:255 28 12] [0x4 3 [9 4] 10.000000] (REPLY)
f 5.038701874 _12_ RTR  --- 0 AODV 44 [13a c a 800] ------- [9:255 14:255 27 14] [0x4 4 [9 4] 10.000000] (REPLY)
s 5.040000000 _14_ AGT  --- 2 cbr 1000 [0 0 0 0] ------- [14:0 9:0 32 0] [2] 0 0
r 5.040000000 _14_ RTR  --- 2 cbr 1000 [0 0 0 0] ------- [14:0 9:0 32 0] [2] 0 0
r 5.043794286 _14_ RTR  --- 0 AODV 44 [13a e c 800] ------- [9:255 14:255 27 14] [0x4 4 [9 4] 10.000000] (REPLY)
s 5.043794286 _14_ RTR  --- 0 cbr 1020 [0 0 0 0] ------- [14:0 9:0 30 12] [0] 0 0
s 5.053794286 _14_ RTR  --- 1 cbr 1020 [0 0 0 0] ------- [14:0 9:0 30 12] [1] 0 0
r 5.054040605 _12_ RTR  --- 0 cbr 1020 [13a c e 800] ------- [14:0 9:0 30 12] [0] 1 0
f 5.054040605 _12_ RTR  --- 0 cbr 1020 [13a c e 800] ------- [14:0 9:0 29 10] [0] 1 0
s 5.060000000 _14_ AGT  --- 3 cbr 1000 [0 0 0 0] ------- [14:0 9:0 32 0] [3] 0 0
r 5.060000000 _14_ RTR  --- 3 cbr 1000 [0 0 0 0] ------- [14:0 9:0 32 0] [3] 0 0
s 5.060000000 _14_ RTR  --- 3 cbr 1020 [0 0 0 0] ------- [14:0 9:0 30 12] [3] 0 0
s 5.063794286 _14_ RTR  --- 2 cbr 1020 [0 0 0 0] ------- [14:0 9:0 30 12] [2] 0 0
r 5.063867697 _12_ RTR  --- 1 cbr 1020 [13a c e 800] ------- [14:0 9:0 30 12] [1] 1 0
f 5.063867697 _12_ RTR  --- 1 cbr 1020 [13a c e 800] ------- [14:0 9:0 29 10] [1] 1 0
r 5.073553457 _10_ RTR  --- 0 cbr 1020 [13a a c 800] ------- [14:0 9:0 29 10] [0] 2 0
f 5.073553457 _10_ RTR  --- 0 cbr 1020 [13a a c 800] ------- [14:0 9:0 28 19] [0] 2 0
s 5.080000000 _14_ AGT  --- 4 cbr 1000 [0 0 0 0] ------- [14:0 9:0 32 0] [4] 0 0
r 5.080000000 _14_ RTR  --- 4 cbr 1000 [0 0 0 0] ------- [14:0 9:0 32 0] [4] 0 0
s 5.080000000 _14_ RTR  --- 4 cbr 1020 [0 0 0 0] ------- [14:0 9:0 30 12] [4] 0 0
r 5.083339804 _10_ RTR  --- 1 cbr 1020 [13a a c 800] ------- [14:0 9:0 29 10] [1] 2 0
f 5.083339804 _10_ RTR  --- 1 cbr 1020 [13a a c 800] ------- [14:0 9:0 28 19] [1] 2 0
r 5.093286230 _19_ RTR  --- 0 cbr 1020 [13a 13 a 800] ------- [14:0 9:0 28 19] [0] 3 0
f 5.093286230 _19_ RTR  --- 0 cbr 1020 [13a 13 a 800] ------- [14:0 9:0 27 9] [0] 3 0
s 5.100000000 _14_ AGT  --- 5 cbr 1000 [0 0 0 0] ------- [14:0 9:0 32 0] [5] 0 0
r 5.100000000 _14_ RTR  --- 5 cbr 1000 [0 0 0 0] ------- [14:0 9:0 32 0] [5] 0 0
s 5.100000000 _14_ RTR  --- 5 cbr 1020 [0 0 0 0] ------- [14:0 9:0 30 12] [5] 0 0
r 5.102953465 _19_ RTR  --- 1 cbr 1020 [13a 13 a 800] ------- [14:0 9:0 28 19] [1] 3 0
f 5.102953465 _19_ RTR  --- 1 cbr 1020 [13a 13 a 800] ------- [14:0 9:0 27 9] [1] 3 0
r 5.112839627 _9_ AGT  --- 0 cbr 1020 [13a 9 13 800] ------- [14:0 9:0 27 9] [0] 4 0
s 5.120000000 _14_ AGT  --- 6 cbr 1000 [0 0 0 0] ------- [14:0 9:0 32 0] [6] 0 0
r 5.120000000 _14_ RTR  --- 6 cbr 1000 [0 0 0 0] ------- [14:0 9:0 32 0] [6] 0 0
s 5.120000000 _14_ RTR  --- 6 cbr 1020 [0 0 0 0] ------- [14:0 9:0 30 12] [6] 0 0
r 5.122866510 _9_ AGT  --- 1 cbr 1020 [13a 9 13 800] ------- [14:0 9:0 27 9] [1] 4 0
r 5.132723845 _12_ RTR  --- 3 cbr 1020 [13a c e 800] ------- [14:0 9:0 30 12] [3] 1 0
f 5.132723845 _12_ RTR  --- 3 cbr 1020 [13a c e 800] ------- [14:0 9:0 29 10] [3] 1 0
s 5.140000000 _14_ AGT  --- 7 cbr 1000 [0 0 0 0] ------- [14:0 9:0 32 0] [7] 0 0
r 5.140000000 _14_ RTR  --- 7 cbr 1000 [0 0 0 0] ------- [14:0 9:0 32 0] [7] 0 0
s 5.140000000 _14_ RTR  --- 7 cbr 1020 [0 0 0 0] ------- [14:0 9:0 30 12] [7] 0 0
r 5.142809600 _10_ RTR  --- 3 cbr 1020 [13a a c 800] ------- [14:0 9:0 29 10] [3] 2 0
f 5.142809600 _10_ RTR  --- 3 cbr 1020 [13a a c 800] ------- [14:0 9:0 28 19] [3] 2 0
r 5.152796026 _19_ RTR  --- 3 cbr 1020 [13a 13 a 800] ------- [14:0 9:0 28 19] [3] 3 0
f 5.152796026 _19_ RTR  --- 3 cbr 1020 [13a 13 a 800] ------- [14:0 9:0 27 9] [3] 3 0
s 5.160000000 _14_ AGT  --- 8 cbr 1000 [0 0 0 0] ------- [14:0 9:0 32 0] [8] 0 0
r 5.160000000 _14_ RTR  --- 8 cbr 1000 [0 0 0 0] ------- [14:0 9:0 32 0] [8] 0 0
s 5.160000000 _14_ RTR  --- 8 cbr 1020 [0 0 0 0] ------- [14:0 9:0 30 12] [8] 0 0
r 5.162482189 _9_ AGT  --- 3 cbr 1020 [13a 9 13 800] ------- [14:0 9:0 27 9] [3] 4 0
r 5.172299523 _12_ RTR  --- 2 cbr 1020 [13a c e 800] ------- [14:0 9:0 30 12] [2] 1 0
f 5.172299523 _12_ RTR  --- 2 cbr 1020 [13a c e 800] ------- [14:0 9:0 29 10] [2] 1 0
s 5.180000000 _14_ AGT  --- 9 cbr 1000 [0 0 0 0] ------- [14:0 9:0 32 0] [9] 0 0
r 5.180000000 _14_ RTR  --- 9 cbr 1000 [0 0 0 0] ------- [14:0 9:0 32 0] [9] 0 0
s 5.180000000 _14_ RTR  --- 9 cbr 1020 [0 0 0 0] ------- [14:0 9:0 30 12] [9] 0 0
r 5.181965274 _10_ RTR  --- 2 cbr 1020 [13a a c 800] ------- [14:0 9:0 29 10] [2] 2 0
f 5.181965274 _10_ RTR  --- 2 cbr 1020 [13a a c 800] ------- [14:0 9:0 28 19] [2] 2 0
r 5.191891699 _19_ RTR  --- 2 cbr 1020 [13a 13 a 800] ------- [14:0 9:0 28 19] [2] 3 0
f 5.191891699 _19_ RTR  --- 2 cbr 1020 [13a 13 a 800] ------- [14:0 9:0 27 9] [2] 3 0
s 5.200000000 _14_ AGT  --- 10 cbr 1000 [0 0 0 0] ------- [14:0 9:0 32 0] [10] 0 0
r 5.200000000 _14_ RTR  --- 10 cbr 1000 [0 0 0 0] ------- [14:0 9:0 32 0] [10] 0 0
s 5.200000000 _14_ RTR  --- 10 cbr 1020 [0 0 0 0] ------- [14:0 9:0 30 12] [10] 0 0
r 5.201983753 _12_ RTR  --- 4 cbr 1020 [13a c e 800] ------- [14:0 9:0 30 12] [4] 1 0
f 5.201983753 _12_ RTR  --- 4 cbr 1020 [13a c e 800] ------- [14:0 9:0 29 10] [4] 1 0
r 5.211670841 _12_ RTR  --- 5 cbr 1020 [13a c e 800] ------- [14:0 9:0 30 12] [5] 1 0
f 5.211670841 _12_ RTR  --- 5 cbr 1020 [13a c e 800] ------- [14:0 9:0 29 10] [5] 1 0
s 5.220000000 _14_ AGT  --- 11 cbr 1000 [0 0 0 0] ------- [14:0 9:0 32 0] [11] 0 0
r 5.220000000 _14_ RTR  --- 11 cbr 1000 [0 0 0 0] ------- [14:0 9:0 32 0] [11] 0 0
s 5.220000000 _14_ RTR  --- 11 cbr 1020 [0 0 0 0] ------- [14:0 9:0 30 12] [11] 0 0
r 5.221357928 _12_ RTR  --- 6 cbr 1020 [13a c e 800] ------- [14:0 9:0 30 12] [6] 1 0
f 5.221357928 _12_ RTR  --- 6 cbr 1020 [13a c e 800] ------- [14:0 9:0 29 10] [6] 1 0
r 5.231085016 _12_ RTR  --- 7 cbr 1020 [13a c e 800] ------- [14:0 9:0 30 12] [7] 1 0
f 5.231085016 _12_ RTR  --- 7 cbr 1020 [13a c e 800] ------- [14:0 9:0 29 10] [7] 1 0
s 5.240000000 _14_ AGT  --- 12 cbr 1000 [0 0 0 0] ------- [14:0 9:0 32 0] [12] 0 0
r 5.240000000 _14_ RTR  --- 12 cbr 1000 [0 0 0 0] ------- [14:0 9:0 32 0] [12] 0 0
s 5.240000000 _14_ RTR  --- 12 cbr 1020 [0 0 0 0] ------- [14:0 9:0 30 12] [12] 0 0
r 5.240870762 _10_ RTR  --- 4 cbr 1020 [13a a c 800] ------- [14:0 9:0 29 10] [4] 2 0
f 5.240870762 _10_ RTR  --- 4 cbr 1020 [13a a c 800] ------- [14:0 9:0 28 19] [4] 2 0
r 5.250557187 _19_ RTR  --- 4 cbr 1020 [13a 13 a 800] ------- [14:0 9:0 28 19] [4] 3 0
f 5.250557187 _19_ RTR  --- 4 cbr 1020 [13a 13 a 800] ------- [14:0 9:0 27 9] [4] 3 0
s 5.260000000 _14_ AGT  --- 13 cbr 1000 [0 0 0 0] ------- [14:0 9:0 32 0] [13] 0 0
r 5.260000000 _14_ RTR  --- 13 cbr 1000 [0 0 0 0] ------- [14:0 9:0 32 0] [13] 0 0
s 5.260000000 _14_ RTR  --- 13 cbr 1020 [0 0 0 0] ------- [14:0 9:0 30 12] [13] 0 0
r 5.260403353 _9_ AGT  --- 2 cbr 1020 [13a 9 13 800] ------- [14:0 9:0 27 9] [2] 4 0
r 5.270280682 _12_ RTR  --- 8 cbr 1020 [13a c e 800] ------- [14:0 9:0 30 12] [8] 1 0
f 5.270280682 _12_ RTR  --- 8 cbr 1020 [13a c e 800] ------- [14:0 9:0 29 10] [8] 1 0
r 5.279966424 _10_ RTR  --- 5 cbr 1020 [13a a c 800] ------- [14:0 9:0 29 10] [5] 2 0
f 5.279966424 _10_ RTR  --- 5 cbr 1020 [13a a c 800] ------- [14:0 9:0 28 19] [5] 2 0
s 5.280000000 _14_ AGT  --- 14 cbr 1000 [0 0 0 0] ------- [14:0 9:0 32 0] [14] 0 0
r 5.280000000 _14_ RTR  --- 14 cbr 1000 [0 0 0 0] ------- [14:0 9:0 32 0] [14] 0 0
s 5.280000000 _14_ RTR  --- 14 cbr 1020 [0 0 0 0] ------- [14:0 9:0 30 12] [14] 0 0
r 5.289852849 _19_ RTR  --- 5 cbr 1020 [13a 13 a 800] ------- [14:0 9:0 28 19] [5] 3 0
f 5.289852849 _19_ RTR  --- 5 cbr 1020 [13a 13 a 800] ------- [14:0 9:0 27 9] [5] 3 0
r 5.299599016 _9_ AGT  --- 4 cbr 1020 [13a 9 13 800] ------- [14:0 9:0 27 9] [4] 4 0
s 5.300000000 _14_ AGT  --- 15 cbr 1000 [0 0 0 0] ------- [14:0 9:0 32 0] [15] 0 0
r 5.300000000 _14_ RTR  --- 15 cbr 1000 [0 0 0 0] ------- [14:0 9:0 32 0] [15] 0 0
s 5.300000000 _14_ RTR  --- 15 cbr 1020 [0 0 0 0] ------- [14:0 9:0 30 12] [15] 0 0
r 5.309445906 _9_ AGT  --- 5 cbr 1020 [13a 9 13 800] ------- [14:0 9:0 27 9] [5] 4 0
r 5.319423232 _12_ RTR  --- 9 cbr 1020 [13a c e 800] ------- [14:0 9:0 30 12] [9] 1 0
f 5.319423232 _12_ RTR  --- 9 cbr 1020 [13a c e 800] ------- [14:0 9:0 29 10] [9] 1 0
s 5.320000000 _14_ AGT  --- 16 cbr 1000 [0 0 0 0] ------- [14:0 9:0 32 0] [16] 0 0
r 5.320000000 _14_ RTR  --- 16 cbr 1000 [0 0 0 0] ------- [14:0 9:0 32 0] [16] 0 0
s 5.320000000 _14_ RTR  --- 16 cbr 1020 [0 0 0 0] ------- [14:0 9:0 30 12] [16] 0 0
r 5.329270317 _12_ RTR  --- 10 cbr 1020 [13a c e 800] ------- [14:0 9:0 30 12] [10] 1 0
f 5.329270317 _12_ RTR  --- 10 cbr 1020 [13a c e 800] ------- [14:0 9:0 29 10] [10] 1 0
r 5.339036054 _10_ RTR  --- 6 cbr 1020 [13a a c 800] ------- [14:0 9:0 29 10] [6] 2 0
f 5.339036054 _10_ RTR  --- 6 cbr 1020 [13a a c 800] ------- [14:0 9:0 28 19] [6] 2 0
s 5.340000000 _14_ AGT  --- 17 cbr 1000 [0 0 0 0] ------- [14:0 9:0 32 0] [17] 0 0
r 5.340000000 _14_ RTR  --- 17 cbr 1000 [0 0 0 0] ------- [14:0 9:0 32 0] [17] 0 0
s 5.340000000 _14_ RTR  --- 17 cbr 1020 [0 0 0 0] ------- [14:0 9:0 30 12] [17] 0 0
r 5.348802479 _19_ RTR  --- 6 cbr 1020 [13a 13 a 800] ------- [14:0 9:0 28 19] [6] 3 0
f 5.348802479 _19_ RTR  --- 6 cbr 1020 [13a 13 a 800] ------- [14:0 9:0 27 9] [6] 3 0
r 5.358668648 _9_ AGT  --- 6 cbr 1020 [13a 9 13 800] ------- [14:0 9:0 27 9] [6] 4 0
s 5.360000000 _14_ AGT  --- 18 cbr 1000 [0 0 0 0] ------- [14:0 9:0 32 0] [18] 0 0
r 5.360000000 _14_ RTR  --- 18 cbr 1000 [0 0 0 0] ------- [14:0 9:0 32 0] [18] 0 0
s 5.360000000 _14_ RTR  --- 18 cbr 1020 [0 0 0 0] ------- [14:0 9:0 30 12] [18] 0 0
r 5.368445972 _12_ RTR  --- 11 cbr 1020 [13a c e 800] ------- [14:0 9:0 30 12] [11] 1 0
f 5.368445972 _12_ RTR  --- 11 cbr 1020 [13a c e 800] ------- [14:0 9:0 29 10] [11] 1 0
r 5.378113055 _12_ RTR  --- 12 cbr 1020 [13a c e 800] ------- [14:0 9:0 30 12] [12] 1 0
f 5.378113055 _12_ RTR  --- 12 cbr 1020 [13a c e 800] ------- [14:0 9:0 29 10] [12] 1 0
s 5.380000000 _14_ AGT  --- 19 cbr 1000 [0 0 0 0] ------- [14:0 9:0 32 0] [19] 0 0
r 5.380000000 _14_ RTR  --- 19 cbr 1000 [0 0 0 0] ------- [14:0 9:0 32 0] [19] 0 0
s 5.380000000 _14_ RTR  --- 19 cbr 1020 [0 0 0 0] ------- [14:0 9:0 30 12] [19] 0 0
r 5.387938788 _10_ RTR  --- 7 cbr 1020 [13a a c 800] ------- [14:0 9:0 29 10] [7] 2 0
f 5.387938788 _10_ RTR  --- 7 cbr 1020 [13a a c 800] ------- [14:0 9:0 28 19] [7] 2 0
r 5.398165212 _19_ RTR  --- 7 cbr 1020 [13a 13 a 800] ------- [14:0 9:0 28 19] [7] 3 0
f 5.398165212 _19_ RTR  --- 7 cbr 1020 [13a 13 a 800] ------- [14:0 9:0 27 9] [7] 3 0
s 5.400000000 _14_ AGT  --- 20 cbr 1000 [0 0 0 0] ------- [14:0 9:0 32 0] [20] 0 0
r 5.400000000 _14_ RTR  --- 20 cbr 1000 [0 0 0 0] ------- [14:0 9:0 32 0] [20] 0 0
s 5.400000000 _14_ RTR  --- 20 cbr 1020 [0 0 0 0] ------- [14:0 9:0 30 12] [20] 0 0
r 5.408236321 _10_ RTR  --- 8 cbr 1020 [13a a c 800] ------- [14:0 9:0 29 10] [8] 2 0
f 5.408236321 _10_ RTR  --- 8 cbr 1020 [13a a c 800] ------- [14:0 9:0 28 19] [8] 2 0
r 5.418042628 _10_ RTR  --- 9 cbr 1020 [13a a c 800] ------- [14:0 9:0 29 10] [9] 2 0
f 5.418042628 _10_ RTR  --- 9 cbr 1020 [13a a c 800] ------- [14:0 9:0 28 19] [9] 2 0
s 5.420000000 _14_ AGT  --- 21 cbr 1000 [0 0 0 0] ------- [14:0 9:0 32 0] [21] 0 0
r 5.420000000 _14_ RTR  --- 21 cbr 1000 [0 0 0 0] ------- [14:0 9:0 32 0] [21] 0 0
s 5.420000000 _14_ RTR  --- 21 cbr 1020 [0 0 0 0] ------- [14:0 9:0 30 12] [21] 0 0
r 5.427859600 _9_ AGT  --- 7 cbr 1020 [13a 9 13 800] ------- [14:0 9:0 27 9] [7] 4 0
r 5.437756921 _12_ RTR  --- 13 cbr 1020 [13a c e 800] ------- [14:0 9:0 30 12] [13] 1 0
f 5.437756921 _12_ RTR  --- 13 cbr 1020 [13a c e 800] ------- [14:0 9:0 29 10] [13] 1 0
s 5.440000000 _14_ AGT  --- 22 cbr 1000 [0 0 0 0] ------- [14:0 9:0 32 0] [22] 0 0
r 5.440000000 _14_ RTR  --- 22 cbr 1000 [0 0 0 0] ------- [14:0 9:0 32 0] [22] 0 0
s 5.440000000 _14_ RTR  --- 22 cbr 1020 [0 0 0 0] ------- [14:0 9:0 30 12] [22] 0 0
r 5.447522648 _10_ RTR  --- 10 cbr 1020 [13a a c 800] ------- [14:0 9:0 29 10] [10] 2 0
f 5.447522648 _10_ RTR  --- 10 cbr 1020 [13a a c 800] ------- [14:0 9:0 28 19] [10] 2 0
r 5.457368951 _10_ RTR  --- 11 cbr 1020 [13a a c 800] ------- [14:0 9:0 29 10] [11] 2 0
f 5.457368951 _10_ RTR  --- 11 cbr 1020 [13a a c 800] ------- [14:0 9:0 28 19] [11] 2 0
s 5.460000000 _14_ AGT  --- 23 cbr 1000 [0 0 0 0] ------- [14:0 9:0 32 0] [23] 0 0
r 5.460000000 _14_ RTR  --- 23 cbr 1000 [0 0 0 0] ------- [14:0 9:0 32 0] [23] 0 0
s 5.460000000 _14_ RTR  --- 23 cbr 1020 [0 0 0 0] ------- [14:0 9:0 30 12] [23] 0 0
r 5.467035252 _10_ RTR  --- 12 cbr 1020 [13a a c 800] ------- [14:0 9:0 29 10] [12] 2 0
f 5.467035252 _10_ RTR  --- 12 cbr 1020 [13a a c 800] ------- [14:0 9:0 28 19] [12] 2 0
r 5.476721675 _19_ RTR  --- 8 cbr 1020 [13a 13 a 800] ------- [14:0 9:0 28 19] [8] 3 0
f 5.476721675 _19_ RTR  --- 8 cbr 1020 [13a 13 a 800] ------- [14:0 9:0 27 9] [8] 3 0
s 5.480000000 _14_ AGT  --- 24 cbr 1000 [0 0 0 0] ------- [14:0 9:0 32 0] [24] 0 0
r 5.480000000 _14_ RTR  --- 24 cbr 1000 [0 0 0 0] ------- [14:0 9:0 32 0] [24] 0 0
s 5.480000000 _14_ RTR  --- 24 cbr 1020 [0 0 0 0] ------- [14:0 9:0 30 12] [24] 0 0
r 5.486567848 _9_ AGT  --- 8 cbr 1020 [13a 9 13 800] ------- [14:0 9:0 27 9] [8] 4 0
r 5.496305166 _12_ RTR  --- 14 cbr 1020 [13a c e 800] ------- [14:0 9:0 30 12] [14] 1 0
f 5.496305166 _12_ RTR  --- 14 cbr 1020 [13a c e 800] ------- [14:0 9:0 29 10] [14] 1 0
s 5.500000000 _14_ AGT  --- 25 cbr 1000 [0 0 0 0] ------- [14:0 9:0 32 0] [25] 0 0
r 5.500000000 _14_ RTR  --- 25 cbr 1000 [0 0 0 0] ------- [14:0 9:0 32 0] [25] 0 0
s 5.500000000 _14_ RTR  --- 25 cbr 1020 [0 0 0 0] ------- [14:0 9:0 30 12] [25] 0 0
r 5.505972246 _12_ RTR  --- 15 cbr 1020 [13a c e 800] ------- [14:0 9:0 30 12] [15] 1 0
f 5.505972246 _12_ RTR  --- 15 cbr 1020 [13a c e 800] ------- [14:0 9:0 29 10] [15] 1 0
r 5.515759326 _12_ RTR  --- 16 cbr 1020 [13a c e 800] ------- [14:0 9:0 30 12] [16] 1 0
f 5.515759326 _12_ RTR  --- 16 cbr 1020 [13a c e 800] ------- [14:0 9:0 29 10] [16] 1 0
s 5.520000000 _14_ AGT  --- 26 cbr 1000 [0 0 0 0] ------- [14:0 9:0 32 0] [26] 0 0
r 5.520000000 _14_ RTR  --- 26 cbr 1000 [0 0 0 0] ------- [14:0 9:0 32 0] [26] 0 0
s 5.520000000 _14_ RTR  --- 26 cbr 1020 [0 0 0 0] ------- [14:0 9:0 30 12] [26] 0 0
r 5.525685047 _10_ RTR  --- 13 cbr 1020 [13a a c 800] ------- [14:0 9:0 29 10] [13] 2 0
f 5.525685047 _10_ RTR  --- 13 cbr 1020 [13a a c 800] ------- [14:0 9:0 28 19] [13] 2 0
r 5.535431470 _19_ RTR  --- 9 cbr 1020 [13a 13 a 800] ------- [14:0 9:0 28 19] [9] 3 0
f 5.535431470 _19_ RTR  --- 9 cbr 1020 [13a 13 a 800] ------- [14:0 9:0 27 9] [9] 3 0
s 5.540000000 _14_ AGT  --- 27 cbr 1000 [0 0 0 0] ------- [14:0 9:0 32 0] [27] 0 0
r 5.540000000 _14_ RTR  --- 27 cbr 1000 [0 0 0 0] ------- [14:0 9:0 32 0] [27] 0 0
s 5.540000000 _14_ RTR  --- 27 cbr 1020 [0 0 0 0] ------- [14:0 9:0 30 12] [27] 0 0
r 5.545257644 _9_ AGT  --- 9 cbr 1020 [13a 9 13 800] ------- [14:0 9:0 27 9] [9] 4 0
r 5.555094959 _12_ RTR  --- 17 cbr 1020 [13a c e 800] ------- [14:0 9:0 30 12] [17] 1 0
f 5.555094959 _12_ RTR  --- 17 cbr 1020 [13a c e 800] ------- [14:0 9:0 29 10] [17] 1 0
s 5.560000000 _14_ AGT  --- 28 cbr 1000 [0 0 0 0] ------- [14:0 9:0 32 0] [28] 0 0
r 5.560000000 _14_ RTR  --- 28 cbr 1000 [0 0 0 0] ------- [14:0 9:0 32 0] [28] 0 0
s 5.560000000 _14_ RTR  --- 28 cbr 1020 [0 0 0 0] ------- [14:0 9:0 30 12] [28] 0 0
r 5.564860676 _10_ RTR  --- 14 cbr 1020 [13a a c 800] ------- [14:0 9:0 29 10] [14] 2 0
f 5.564860676 _10_ RTR  --- 14 cbr 1020 [13a a c 800] ------- [14:0 9:0 28 19] [14] 2 0
r 5.574847099 _19_ RTR  --- 10 cbr 1020 [13a 13 a 800] ------- [14:0 9:0 28 19] [10] 3 0
f 5.574847099 _19_ RTR  --- 10 cbr 1020 [13a 13 a 800] ------- [14:0 9:0 27 9] [10] 3 0
s 5.580000000 _14_ AGT  --- 29 cbr 1000 [0 0 0 0] ------- [14:0 9:0 32 0] [29] 0 0
r 5.580000000 _14_ RTR  --- 29 cbr 1000 [0 0 0 0] ------- [14:0 9:0 32 0] [29] 0 0
s 5.580000000 _14_ RTR  --- 29 cbr 1020 [0 0 0 0] ------- [14:0 9:0 30 12] [29] 0 0
r 5.584693274 _9_ AGT  --- 10 cbr 1020 [13a 9 13 800] ------- [14:0 9:0 27 9] [10] 4 0