M 0.00000 0 (105.00, 206.00, 0.00), (130.00, 208.00), 5.00
M 0.00000 1 (805.00, 742.00, 0.00), (485.00, 128.00), 5.00
M 0.00000 8 (258.00, 646.00, 0.00), (335.00, 700.00), 5.00
M 0.00000 11 (495.00, 502.00, 0.00), (565.00, 420.00), 5.00
M 0.00000 17 (435.00, 186.00, 0.00), (765.00, 320.00), 5.00
M 1.00000 2 (515.00, 606.00, 0.00), (615.00, 340.00), 5.00
M 1.00000 3 (405.00, 342.00, 0.00), (680.00, 458.00), 5.00
M 1.00000 7 (555.00, 762.00, 0.00), (185.00, 120.00), 5.00
M 1.00000 12 (75.00, 426.00, 0.00), (700.00, 20.00), 5.00
M 1.00000 13 (145.00, 119.00, 0.00), (115.00, 85.00), 5.00
M 1.00000 14 (85.00, 702.00, 0.00), (195.00, 185.00), 5.00
M 1.00000 15 (340.00, 36.00, 0.00), (387.00, 590.00), 5.00
M 1.00000 18 (5.00, 2.00, 0.00), (109.00, 20.00), 5.00
M 1.00000 19 (515.00, 366.00, 0.00), (175.00, 185.00), 5.00
M 2.00000 6 (675.00, 336.00, 0.00), (750.00, 638.00), 5.00
M 2.00000 9 (645.00, 522.00, 0.00), (425.00, 590.00), 5.00
M 2.00000 10 (265.00, 376.00, 0.00), (105.00, 620.00), 5.00
M 2.00000 16 (758.00, 602.00, 0.00), (165.00, 620.00), 5.00
M 3.00000 4 (675.00, 156.00, 0.00), (580.00, 368.00), 5.00
M 3.00000 5 (905.00, 549.00, 0.00), (785.00, 228.00), 5.00
s 5.000000000 _1_ AGT  --- 0 cbr 1000 [0 0 0 0] ------- [1:0 13:0 32 0] [0] 0 0
r 5.000000000 _1_ RTR  --- 0 cbr 1000 [0 0 0 0] ------- [1:0 13:0 32 0] [0] 0 0
s 5.000000000 _1_ RTR  --- 0 AODV 48 [0 0 0 0] ------- [1:255 -1:255 30 0] [0x2 1 1 [13 0] [1 4]] (REQUEST)
r 5.001408426 _16_ RTR  --- 0 AODV 48 [0 ffffffff 1 800] ------- [1:255 -1:255 30 0] [0x2 1 1 [13 0] [1 4]] (REQUEST)
r 5.001408700 _5_ RTR  --- 0 AODV 48 [0 ffffffff 1 800] ------- [1:255 -1:255 30 0] [0x2 1 1 [13 0] [1 4]] (REQUEST)
r 5.001408832 _7_ RTR  --- 0 AODV 48 [0 ffffffff 1 800] ------- [1:255 -1:255 30 0] [0x2 1 1 [13 0] [1 4]] (REQUEST)
s 5.001550472 _16_ RTR  --- 0 AODV 48 [0 ffffffff 1 800] ------- [16:255 -1:255 29 0] [0x2 2 1 [13 0] [1 4]] (REQUEST)
s 5.002289927 _5_ RTR  --- 0 AODV 48 [0 ffffffff 1 800] ------- [5:255 -1:255 29 0] [0x2 2 1 [13 0] [1 4]] (REQUEST)
r 5.002498898 _1_ RTR  --- 0 AODV 48 [0 ffffffff 10 800] ------- [16:255 -1:255 29 0] [0x2 2 1 [13 0] [1 4]] (REQUEST)
r 5.002498925 _9_ RTR  --- 0 AODV 48 [0 ffffffff 10 800] ------- [16:255 -1:255 29 0] [0x2 2 1 [13 0] [1 4]] (REQUEST)
r 5.002499041 _5_ RTR  --- 0 AODV 48 [0 ffffffff 10 800] ------- [16:255 -1:255 29 0] [0x2 2 1 [13 0] [1 4]] (REQUEST)
r 5.002499211 _2_ RTR  --- 0 AODV 48 [0 ffffffff 10 800] ------- [16:255 -1:255 29 0] [0x2 2 1 [13 0] [1 4]] (REQUEST)
r 5.002499285 _7_ RTR  --- 0 AODV 48 [0 ffffffff 10 800] ------- [16:255 -1:255 29 0] [0x2 2 1 [13 0] [1 4]] (REQUEST)
r 5.003557609 _16_ RTR  --- 0 AODV 48 [0 ffffffff 5 800] ------- [5:255 -1:255 29 0] [0x2 2 1 [13 0] [1 4]] (REQUEST)
r 5.003557741 _1_ RTR  --- 0 AODV 48 [0 ffffffff 5 800] ------- [5:255 -1:255 29 0] [0x2 2 1 [13 0] [1 4]] (REQUEST)
s 5.004844942 _9_ RTR  --- 0 AODV 48 [0 ffffffff 10 800] ------- [9:255 -1:255 28 0] [0x2 3 1 [13 0] [1 4]] (REQUEST)
s 5.005820566 _7_ RTR  --- 0 AODV 48 [0 ffffffff 1 800] ------- [7:255 -1:255 29 0] [0x2 2 1 [13 0] [1 4]] (REQUEST)
r 5.006033357 _2_ RTR  --- 0 AODV 48 [0 ffffffff 9 800] ------- [9:255 -1:255 28 0] [0x2 3 1 [13 0] [1 4]] (REQUEST)
r 5.006033366 _11_ RTR  --- 0 AODV 48 [0 ffffffff 9 800] ------- [9:255 -1:255 28 0] [0x2 3 1 [13 0] [1 4]] (REQUEST)
r 5.006033394 _16_ RTR  --- 0 AODV 48 [0 ffffffff 9 800] ------- [9:255 -1:255 28 0] [0x2 3 1 [13 0] [1 4]] (REQUEST)
r 5.006033550 _6_ RTR  --- 0 AODV 48 [0 ffffffff 9 800] ------- [9:255 -1:255 28 0] [0x2 3 1 [13 0] [1 4]] (REQUEST)
r 5.006033662 _19_ RTR  --- 0 AODV 48 [0 ffffffff 9 800] ------- [9:255 -1:255 28 0] [0x2 3 1 [13 0] [1 4]] (REQUEST)
r 5.006033724 _7_ RTR  --- 0 AODV 48 [0 ffffffff 9 800] ------- [9:255 -1:255 28 0] [0x2 3 1 [13 0] [1 4]] (REQUEST)
r 5.006972254 _2_ RTR  --- 0 AODV 48 [0 ffffffff 7 800] ------- [7:255 -1:255 29 0] [0x2 2 1 [13 0] [1 4]] (REQUEST)
r 5.006972505 _9_ RTR  --- 0 AODV 48 [0 ffffffff 7 800] ------- [7:255 -1:255 29 0] [0x2 2 1 [13 0] [1 4]] (REQUEST)
r 5.006972536 _16_ RTR  --- 0 AODV 48 [0 ffffffff 7 800] ------- [7:255 -1:255 29 0] [0x2 2 1 [13 0] [1 4]] (REQUEST)
r 5.006972556 _1_ RTR  --- 0 AODV 48 [0 ffffffff 7 800] ------- [7:255 -1:255 29 0] [0x2 2 1 [13 0] [1 4]] (REQUEST)
s 5.007171632 _6_ RTR  --- 0 AODV 48 [0 ffffffff 9 800] ------- [6:255 -1:255 27 0] [0x2 4 1 [13 0] [1 4]] (REQUEST)
r 5.008715715 _19_ RTR  --- 0 AODV 48 [0 ffffffff 6 800] ------- [6:255 -1:255 27 0] [0x2 4 1 [13 0] [1 4]] (REQUEST)
r 5.008715718 _9_ RTR  --- 0 AODV 48 [0 ffffffff 6 800] ------- [6:255 -1:255 27 0] [0x2 4 1 [13 0] [1 4]] (REQUEST)
r 5.008715729 _4_ RTR  --- 0 AODV 48 [0 ffffffff 6 800] ------- [6:255 -1:255 27 0] [0x2 4 1 [13 0] [1 4]] (REQUEST)
r 5.008715822 _11_ RTR  --- 0 AODV 48 [0 ffffffff 6 800] ------- [6:255 -1:255 27 0] [0x2 4 1 [13 0] [1 4]] (REQUEST)
s 5.008887862 _2_ RTR  --- 0 AODV 48 [0 ffffffff 10 800] ------- [2:255 -1:255 28 0] [0x2 3 1 [13 0] [1 4]] (REQUEST)
r 5.010178406 _11_ RTR  --- 0 AODV 48 [0 ffffffff 2 800] ------- [2:255 -1:255 28 0] [0x2 3 1 [13 0] [1 4]] (REQUEST)
r 5.010178471 _9_ RTR  --- 0 AODV 48 [0 ffffffff 2 800] ------- [2:255 -1:255 28 0] [0x2 3 1 [13 0] [1 4]] (REQUEST)
r 5.010178587 _7_ RTR  --- 0 AODV 48 [0 ffffffff 2 800] ------- [2:255 -1:255 28 0] [0x2 3 1 [13 0] [1 4]] (REQUEST)
r 5.010178794 _16_ RTR  --- 0 AODV 48 [0 ffffffff 2 800] ------- [2:255 -1:255 28 0] [0x2 3 1 [13 0] [1 4]] (REQUEST)
r 5.010178830 _19_ RTR  --- 0 AODV 48 [0 ffffffff 2 800] ------- [2:255 -1:255 28 0] [0x2 3 1 [13 0] [1 4]] (REQUEST)
s 5.012434042 _11_ RTR  --- 0 AODV 48 [0 ffffffff 9 800] ------- [11:255 -1:255 27 0] [0x2 4 1 [13 0] [1 4]] (REQUEST)
r 5.013402392 _2_ RTR  --- 0 AODV 48 [0 ffffffff b 800] ------- [11:255 -1:255 27 0] [0x2 4 1 [13 0] [1 4]] (REQUEST)
r 5.013402466 _9_ RTR  --- 0 AODV 48 [0 ffffffff b 800] ------- [11:255 -1:255 27 0] [0x2 4 1 [13 0] [1 4]] (REQUEST)
r 5.013402466 _19_ RTR  --- 0 AODV 48 [0 ffffffff b 800] ------- [11:255 -1:255 27 0] [0x2 4 1 [13 0] [1 4]] (REQUEST)
r 5.013402574 _3_ RTR  --- 0 AODV 48 [0 ffffffff b 800] ------- [11:255 -1:255 27 0] [0x2 4 1 [13 0] [1 4]] (REQUEST)
r 5.013402753 _6_ RTR  --- 0 AODV 48 [0 ffffffff b 800] ------- [11:255 -1:255 27 0] [0x2 4 1 [13 0] [1 4]] (REQUEST)
s 5.014630939 _19_ RTR  --- 0 AODV 48 [0 ffffffff 9 800] ------- [19:255 -1:255 27 0] [0x2 4 1 [13 0] [1 4]] (REQUEST)
r 5.015759186 _3_ RTR  --- 0 AODV 48 [0 ffffffff 13 800] ------- [19:255 -1:255 27 0] [0x2 4 1 [13 0] [1 4]] (REQUEST)
r 5.015759363 _11_ RTR  --- 0 AODV 48 [0 ffffffff 13 800] ------- [19:255 -1:255 27 0] [0x2 4 1 [13 0] [1 4]] (REQUEST)
r 5.015759491 _17_ RTR  --- 0 AODV 48 [0 ffffffff 13 800] ------- [19:255 -1:255 27 0] [0x2 4 1 [13 0] [1 4]] (REQUEST)
r 5.015759544 _6_ RTR  --- 0 AODV 48 [0 ffffffff 13 800] ------- [19:255 -1:255 27 0] [0x2 4 1 [13 0] [1 4]] (REQUEST)
r 5.015759659 _9_ RTR  --- 0 AODV 48 [0 ffffffff 13 800] ------- [19:255 -1:255 27 0] [0x2 4 1 [13 0] [1 4]] (REQUEST)
r 5.015759712 _2_ RTR  --- 0 AODV 48 [0 ffffffff 13 800] ------- [19:255 -1:255 27 0] [0x2 4 1 [13 0] [1 4]] (REQUEST)
r 5.015759748 _10_ RTR  --- 0 AODV 48 [0 ffffffff 13 800] ------- [19:255 -1:255 27 0] [0x2 4 1 [13 0] [1 4]] (REQUEST)
s 5.016786015 _4_ RTR  --- 0 AODV 48 [0 ffffffff 6 800] ------- [4:255 -1:255 26 0] [0x2 5 1 [13 0] [1 4]] (REQUEST)
s 5.017931342 _10_ RTR  --- 0 AODV 48 [0 ffffffff 13 800] ------- [10:255 -1:255 26 0] [0x2 5 1 [13 0] [1 4]] (REQUEST)
s 5.018063733 _3_ RTR  --- 0 AODV 48 [0 ffffffff b 800] ------- [3:255 -1:255 26 0] [0x2 5 1 [13 0] [1 4]] (REQUEST)
r 5.018094633 _6_ RTR  --- 0 AODV 48 [0 ffffffff 4 800] ------- [4:255 -1:255 26 0] [0x2 5 1 [13 0] [1 4]] (REQUEST)
r 5.018094731 _17_ RTR  --- 0 AODV 48 [0 ffffffff 4 800] ------- [4:255 -1:255 26 0] [0x2 5 1 [13 0] [1 4]] (REQUEST)
r 5.019398140 _12_ RTR  --- 0 AODV 48 [0 ffffffff a 800] ------- [10:255 -1:255 26 0] [0x2 5 1 [13 0] [1 4]] (REQUEST)
r 5.019398154 _3_ RTR  --- 0 AODV 48 [0 ffffffff a 800] ------- [10:255 -1:255 26 0] [0x2 5 1 [13 0] [1 4]] (REQUEST)
r 5.019398319 _0_ RTR  --- 0 AODV 48 [0 ffffffff a 800] ------- [10:255 -1:255 26 0] [0x2 5 1 [13 0] [1 4]] (REQUEST)
r 5.019398392 _19_ RTR  --- 0 AODV 48 [0 ffffffff a 800] ------- [10:255 -1:255 26 0] [0x2 5 1 [13 0] [1 4]] (REQUEST)
s 5.020000000 _1_ AGT  --- 1 cbr 1000 [0 0 0 0] ------- [1:0 13:0 32 0] [1] 0 0
r 5.020000000 _1_ RTR  --- 1 cbr 1000 [0 0 0 0] ------- [1:0 13:0 32 0] [1] 0 0
s 5.020490303 _0_ RTR  --- 0 AODV 48 [0 ffffffff a 800] ------- [0:255 -1:255 25 0] [0x2 6 1 [13 0] [1 4]] (REQUEST)
r 5.020616401 _19_ RTR  --- 0 AODV 48 [0 ffffffff 3 800] ------- [3:255 -1:255 26 0] [0x2 5 1 [13 0] [1 4]] (REQUEST)
r 5.020616681 _17_ RTR  --- 0 AODV 48 [0 ffffffff 3 800] ------- [3:255 -1:255 26 0] [0x2 5 1 [13 0] [1 4]] (REQUEST)
r 5.020616686 _11_ RTR  --- 0 AODV 48 [0 ffffffff 3 800] ------- [3:255 -1:255 26 0] [0x2 5 1 [13 0] [1 4]] (REQUEST)
r 5.020616725 _10_ RTR  --- 0 AODV 48 [0 ffffffff 3 800] ------- [3:255 -1:255 26 0] [0x2 5 1 [13 0] [1 4]] (REQUEST)
r 5.022079588 _13_ RTR  --- 0 AODV 48 [0 ffffffff 0 800] ------- [0:255 -1:255 25 0] [0x2 6 1 [13 0] [1 4]] (REQUEST)
s 5.022079588 _13_ RTR  --- 0 AODV 44 [0 0 0 0] ------- [13:255 1:255 30 0] [0x4 1 [13 4] 10.000000] (REPLY)
r 5.022079942 _12_ RTR  --- 0 AODV 48 [0 ffffffff 0 800] ------- [0:255 -1:255 25 0] [0x2 6 1 [13 0] [1 4]] (REQUEST)
r 5.022079976 _10_ RTR  --- 0 AODV 48 [0 ffffffff 0 800] ------- [0:255 -1:255 25 0] [0x2 6 1 [13 0] [1 4]] (REQUEST)
r 5.022080001 _18_ RTR  --- 0 AODV 48 [0 ffffffff 0 800] ------- [0:255 -1:255 25 0] [0x2 6 1 [13 0] [1 4]] (REQUEST)
s 5.023453331 _12_ RTR  --- 0 AODV 48 [0 ffffffff a 800] ------- [12:255 -1:255 25 0] [0x2 6 1 [13 0] [1 4]] (REQUEST)
s 5.024157744 _17_ RTR  --- 0 AODV 48 [0 ffffffff 13 800] ------- [17:255 -1:255 26 0] [0x2 5 1 [13 0] [1 4]] (REQUEST)
r 5.026900017 _0_ RTR  --- 0 AODV 44 [13a 0 d 800] ------- [13:255 1:255 30 0] [0x4 1 [13 4] 10.000000] (REPLY)
f 5.026900017 _0_ RTR  --- 0 AODV 44 [13a 0 d 800] ------- [13:255 1:255 29 10] [0x4 2 [13 4] 10.000000] (REPLY)
r 5.028971275 _10_ RTR  --- 0 AODV 48 [0 ffffffff c 800] ------- [12:255 -1:255 25 0] [0x2 6 1 [13 0] [1 4]] (REQUEST)
r 5.028971420 _0_ RTR  --- 0 AODV 48 [0 ffffffff c 800] ------- [12:255 -1:255 25 0] [0x2 6 1 [13 0] [1 4]] (REQUEST)
s 5.031542651 _18_ RTR  --- 0 AODV 48 [0 ffffffff 0 800] ------- [18:255 -1:255 24 0] [0x2 7 1 [13 0] [1 4]] (REQUEST)
r 5.032465688 _10_ RTR  --- 0 AODV 44 [13a a 0 800] ------- [13:255 1:255 29 10] [0x4 2 [13 4] 10.000000] (REPLY)
f 5.032465688 _10_ RTR  --- 0 AODV 44 [13a a 0 800] ------- [13:255 1:255 28 19] [0x4 3 [13 4] 10.000000] (REPLY)
r 5.034043665 _13_ RTR  --- 0 AODV 48 [0 ffffffff 12 800] ------- [18:255 -1:255 24 0] [0x2 7 1 [13 0] [1 4]] (REQUEST)
r 5.034043942 _0_ RTR  --- 0 AODV 48 [0 ffffffff 12 800] ------- [18:255 -1:255 24 0] [0x2 7 1 [13 0] [1 4]] (REQUEST)
r 5.038767336 _19_ RTR  --- 0 AODV 44 [13a 13 a 800] ------- [13:255 1:255 28 19] [0x4 3 [13 4] 10.000000] (REPLY)
f 5.038767336 _19_ RTR  --- 0 AODV 44 [13a 13 a 800] ------- [13:255 1:255 27 9] [0x4 4 [13 4] 10.000000] (REPLY)
s 5.040000000 _1_ AGT  --- 2 cbr 1000 [0 0 0 0] ------- [1:0 13:0 32 0] [2] 0 0
r 5.040000000 _1_ RTR  --- 2 cbr 1000 [0 0 0 0] ------- [1:0 13:0 32 0] [2] 0 0
r 5.040109985 _3_ RTR  --- 0 AODV 48 [0 ffffffff 11 800] ------- [17:255 -1:255 26 0] [0x2 5 1 [13 0] [1 4]] (REQUEST)
r 5.040110010 _19_ RTR  --- 0 AODV 48 [0 ffffffff 11 800] ------- [17:255 -1:255 26 0] [0x2 5 1 [13 0] [1 4]] (REQUEST)
r 5.040110064 _15_ RTR  --- 0 AODV 48 [0 ffffffff 11 800] ------- [17:255 -1:255 26 0] [0x2 5 1 [13 0] [1 4]] (REQUEST)
r 5.040110173 _4_ RTR  --- 0 AODV 48 [0 ffffffff 11 800] ------- [17:255 -1:255 26 0] [0x2 5 1 [13 0] [1 4]] (REQUEST)
r 5.044528051 _9_ RTR  --- 0 AODV 44 [13a 9 13 800] ------- [13:255 1:255 27 9] [0x4 4 [13 4] 10.000000] (REPLY)
f 5.044528051 _9_ RTR  --- 0 AODV 44 [13a 9 13 800] ------- [13:255 1:255 26 16] [0x4 5 [13 4] 10.000000] (REPLY)
r 5.049418215 _16_ RTR  --- 0 AODV 44 [13a 10 9 800] ------- [13:255 1:255 26 16] [0x4 5 [13 4] 10.000000] (REPLY)
f 5.049418215 _16_ RTR  --- 0 AODV 44 [13a 10 9 800] ------- [13:255 1:255 25 1] [0x4 6 [13 4] 10.000000] (REPLY)
s 5.049578226 _15_ RTR  --- 0 AODV 48 [0 ffffffff 11 800] ------- [15:255 -1:255 25 0] [0x2 6 1 [13 0] [1 4]] (REQUEST)
r 5.050646831 _17_ RTR  --- 0 AODV 48 [0 ffffffff f 800] ------- [15:255 -1:255 25 0] [0x2 6 1 [13 0] [1 4]] (REQUEST)
r 5.050646944 _13_ RTR  --- 0 AODV 48 [0 ffffffff f 800] ------- [15:255 -1:255 25 0] [0x2 6 1 [13 0] [1 4]] (REQUEST)
r 5.054648192 _1_ RTR  --- 0 AODV 44 [13a 1 10 800] ------- [13:255 1:255 25 1] [0x4 6 [13 4] 10.000000] (REPLY)
s 5.054648192 _1_ RTR  --- 0 cbr 1020 [0 0 0 0] ------- [1:0 13:0 30 16] [0] 0 0
s 5.060000000 _1_ AGT  --- 3 cbr 1000 [0 0 0 0] ------- [1:0 13:0 32 0] [3] 0 0
r 5.060000000 _1_ RTR  --- 3 cbr 1000 [0 0 0 0] ------- [1:0 13:0 32 0] [3] 0 0
s 5.060000000 _1_ RTR  --- 3 cbr 1020 [0 0 0 0] ------- [1:0 13:0 30 16] [3] 0 0
s 5.064648192 _1_ RTR  --- 1 cbr 1020 [0 0 0 0] ------- [1:0 13:0 30 16] [1] 0 0
r 5.064653468 _16_ RTR  --- 0 cbr 1020 [13a 10 1 800] ------- [1:0 13:0 30 16] [0] 1 0
f 5.064653468 _16_ RTR  --- 0 cbr 1020 [13a 10 1 800] ------- [1:0 13:0 29 9] [0] 1 0
r 5.074439168 _16_ RTR  --- 3 cbr 1020 [13a 10 1 800] ------- [1:0 13:0 30 16] [3] 1 0
f 5.074439168 _16_ RTR  --- 3 cbr 1020 [13a 10 1 800] ------- [1:0 13:0 29 9] [3] 1 0
s 5.074648192 _1_ RTR  --- 2 cbr 1020 [0 0 0 0] ------- [1:0 13:0 30 16] [2] 0 0
s 5.080000000 _1_ AGT  --- 4 cbr 1000 [0 0 0 0] ------- [1:0 13:0 32 0] [4] 0 0
r 5.080000000 _1_ RTR  --- 4 cbr 1000 [0 0 0 0] ------- [1:0 13:0 32 0] [4] 0 0
s 5.080000000 _1_ RTR  --- 4 cbr 1020 [0 0 0 0] ------- [1:0 13:0 30 16] [4] 0 0
r 5.084164869 _16_ RTR  --- 1 cbr 1020 [13a 10 1 800] ------- [1:0 13:0 30 16] [1] 1 0
f 5.084164869 _16_ RTR  --- 1 cbr 1020 [13a 10 1 800] ------- [1:0 13:0 29 9] [1] 1 0
r 5.093930224 _9_ RTR  --- 0 cbr 1020 [13a 9 10 800] ------- [1:0 13:0 29 9] [0] 2 0
f 5.093930224 _9_ RTR  --- 0 cbr 1020 [13a 9 10 800] ------- [1:0 13:0 28 19] [0] 2 0
s 5.100000000 _1_ AGT  --- 5 cbr 1000 [0 0 0 0] ------- [1:0 13:0 32 0] [5] 0 0
r 5.100000000 _1_ RTR  --- 5 cbr 1000 [0 0 0 0] ------- [1:0 13:0 32 0] [5] 0 0
s 5.100000000 _1_ RTR  --- 5 cbr 1020 [0 0 0 0] ------- [1:0 13:0 30 16] [5] 0 0
r 5.103716386 _19_ RTR  --- 0 cbr 1020 [13a 13 9 800] ------- [1:0 13:0 28 19] [0] 3 0
f 5.103716386 _19_ RTR  --- 0 cbr 1020 [13a 13 9 800] ------- [1:0 13:0 27 10] [0] 3 0
r 5.113822812 _10_ RTR  --- 0 cbr 1020 [13a a 13 800] ------- [1:0 13:0 27 10] [0] 4 0
f 5.113822812 _10_ RTR  --- 0 cbr 1020 [13a a 13 800] ------- [1:0 13:0 26 0] [0] 4 0
s 5.120000000 _1_ AGT  --- 6 cbr 1000 [0 0 0 0] ------- [1:0 13:0 32 0] [6] 0 0
r 5.120000000 _1_ RTR  --- 6 cbr 1000 [0 0 0 0] ------- [1:0 13:0 32 0] [6] 0 0
s 5.120000000 _1_ RTR  --- 6 cbr 1020 [0 0 0 0] ------- [1:0 13:0 30 16] [6] 0 0
r 5.123789020 _0_ RTR  --- 0 cbr 1020 [13a 0 a 800] ------- [1:0 13:0 26 0] [0] 5 0
f 5.123789020 _0_ RTR  --- 0 cbr 1020 [13a 0 a 800] ------- [1:0 13:0 25 13] [0] 5 0
r 5.133674065 _13_ AGT  --- 0 cbr 1020 [13a d 0 800] ------- [1:0 13:0 25 13] [0] 6 0
r 5.133945409 _9_ RTR  --- 3 cbr 1020 [13a 9 10 800] ------- [1:0 13:0 29 9] [3] 2 0
f 5.133945409 _9_ RTR  --- 3 cbr 1020 [13a 9 10 800] ------- [1:0 13:0 28 19] [3] 2 0
s 5.140000000 _1_ AGT  --- 7 cbr 1000 [0 0 0 0] ------- [1:0 13:0 32 0] [7] 0 0
r 5.140000000 _1_ RTR  --- 7 cbr 1000 [0 0 0 0] ------- [1:0 13:0 32 0] [7] 0 0
s 5.140000000 _1_ RTR  --- 7 cbr 1020 [0 0 0 0] ------- [1:0 13:0 30 16] [7] 0 0
r 5.144011216 _9_ RTR  --- 1 cbr 1020 [13a 9 10 800] ------- [1:0 13:0 29 9] [1] 2 0
f 5.144011216 _9_ RTR  --- 1 cbr 1020 [13a 9 10 800] ------- [1:0 13:0 28 19] [1] 2 0
r 5.153717379 _19_ RTR  --- 3 cbr 1020 [13a 13 9 800] ------- [1:0 13:0 28 19] [3] 3 0
f 5.153717379 _19_ RTR  --- 3 cbr 1020 [13a 13 9 800] ------- [1:0 13:0 27 10] [3] 3 0
s 5.160000000 _1_ AGT  --- 8 cbr 1000 [0 0 0 0] ------- [1:0 13:0 32 0] [8] 0 0
r 5.160000000 _1_ RTR  --- 8 cbr 1000 [0 0 0 0] ------- [1:0 13:0 32 0] [8] 0 0
s 5.160000000 _1_ RTR  --- 8 cbr 1020 [0 0 0 0] ------- [1:0 13:0 30 16] [8] 0 0
r 5.163543804 _10_ RTR  --- 3 cbr 1020 [13a a 13 800] ------- [1:0 13:0 27 10] [3] 4 0
f 5.163543804 _10_ RTR  --- 3 cbr 1020 [13a a 13 800] ------- [1:0 13:0 26 0] [3] 4 0
r 5.173210013 _0_ RTR  --- 3 cbr 1020 [13a 0 a 800] ------- [1:0 13:0 26 0] [3] 5 0
f 5.173210013 _0_ RTR  --- 3 cbr 1020 [13a 0 a 800] ------- [1:0 13:0 25 13] [3] 5 0
s 5.180000000 _1_ AGT  --- 9 cbr 1000 [0 0 0 0] ------- [1:0 13:0 32 0] [9] 0 0
r 5.180000000 _1_ RTR  --- 9 cbr 1000 [0 0 0 0] ------- [1:0 13:0 32 0] [9] 0 0
s 5.180000000 _1_ RTR  --- 9 cbr 1020 [0 0 0 0] ------- [1:0 13:0 30 16] [9] 0 0
r 5.183195060 _13_ AGT  --- 3 cbr 1020 [13a d 0 800] ------- [1:0 13:0 25 13] [3] 6 0
r 5.198580450 _19_ RTR  --- 1 cbr 1020 [13a 13 9 800] ------- [1:0 13:0 28 19] [1] 3 0
f 5.198580450 _19_ RTR  --- 1 cbr 1020 [13a 13 9 800] ------- [1:0 13:0 27 10] [1] 3 0
s 5.200000000 _1_ AGT  --- 10 cbr 1000 [0 0 0 0] ------- [1:0 13:0 32 0] [10] 0 0
r 5.200000000 _1_ RTR  --- 10 cbr 1000 [0 0 0 0] ------- [1:0 13:0 32 0] [10] 0 0
s 5.200000000 _1_ RTR  --- 10 cbr 1020 [0 0 0 0] ------- [1:0 13:0 30 16] [10] 0 0
r 5.208246875 _10_ RTR  --- 1 cbr 1020 [13a a 13 800] ------- [1:0 13:0 27 10] [1] 4 0
f 5.208246875 _10_ RTR  --- 1 cbr 1020 [13a a 13 800] ------- [1:0 13:0 26 0] [1] 4 0
r 5.218433085 _0_ RTR  --- 1 cbr 1020 [13a 0 a 800] ------- [1:0 13:0 26 0] [1] 5 0
f 5.218433085 _0_ RTR  --- 1 cbr 1020 [13a 0 a 800] ------- [1:0 13:0 25 13] [1] 5 0
s 5.220000000 _1_ AGT  --- 11 cbr 1000 [0 0 0 0] ------- [1:0 13:0 32 0] [11] 0 0
r 5.220000000 _1_ RTR  --- 11 cbr 1000 [0 0 0 0] ------- [1:0 13:0 32 0] [11] 0 0
s 5.220000000 _1_ RTR  --- 11 cbr 1020 [0 0 0 0] ------- [1:0 13:0 30 16] [11] 0 0
r 5.228518133 _13_ AGT  --- 1 cbr 1020 [13a d 0 800] ------- [1:0 13:0 25 13] [1] 6 0
r 5.232042899 _16_ RTR  --- 2 cbr 1020 [13a 10 1 800] ------- [1:0 13:0 30 16] [2] 1 0
f 5.232042899 _16_ RTR  --- 2 cbr 1020 [13a 10 1 800] ------- [1:0 13:0 29 9] [2] 1 0
s 5.240000000 _1_ AGT  --- 12 cbr 1000 [0 0 0 0] ------- [1:0 13:0 32 0] [12] 0 0
r 5.240000000 _1_ RTR  --- 12 cbr 1000 [0 0 0 0] ------- [1:0 13:0 32 0] [12] 0 0
s 5.240000000 _1_ RTR  --- 12 cbr 1020 [0 0 0 0] ------- [1:0 13:0 30 16] [12] 0 0
r 5.241768254 _9_ RTR  --- 2 cbr 1020 [13a 9 10 800] ------- [1:0 13:0 29 9] [2] 2 0
f 5.241768254 _9_ RTR  --- 2 cbr 1020 [13a 9 10 800] ------- [1:0 13:0 28 19] [2] 2 0
r 5.251454419 _19_ RTR  --- 2 cbr 1020 [13a 13 9 800] ------- [1:0 13:0 28 19] [2] 3 0
f 5.251454419 _19_ RTR  --- 2 cbr 1020 [13a 13 9 800] ------- [1:0 13:0 27 10] [2] 3 0
s 5.260000000 _1_ AGT  --- 13 cbr 1000 [0 0 0 0] ------- [1:0 13:0 32 0] [13] 0 0
r 5.260000000 _1_ RTR  --- 13 cbr 1000 [0 0 0 0] ------- [1:0 13:0 32 0] [13] 0 0
s 5.260000000 _1_ RTR  --- 13 cbr 1020 [0 0 0 0] ------- [1:0 13:0 30 16] [13] 0 0
r 5.261180844 _10_ RTR  --- 2 cbr 1020 [13a a 13 800] ------- [1:0 13:0 27 10] [2] 4 0
f 5.261180844 _10_ RTR  --- 2 cbr 1020 [13a a 13 800] ------- [1:0 13:0 26 0] [2] 4 0
r 5.271287055 _0_ RTR  --- 2 cbr 1020 [13a 0 a 800] ------- [1:0 13:0 26 0] [2] 5 0
f 5.271287055 _0_ RTR  --- 2 cbr 1020 [13a 0 a 800] ------- [1:0 13:0 25 13] [2] 5 0
s 5.280000000 _1_ AGT  --- 14 cbr 1000 [0 0 0 0] ------- [1:0 13:0 32 0] [14] 0 0
r 5.280000000 _1_ RTR  --- 14 cbr 1000 [0 0 0 0] ------- [1:0 13:0 32 0] [14] 0 0
s 5.280000000 _1_ RTR  --- 14 cbr 1020 [0 0 0 0] ------- [1:0 13:0 30 16] [14] 0 0
r 5.280736867 _16_ RTR  --- 4 cbr 1020 [13a 10 1 800] ------- [1:0 13:0 30 16] [4] 1 0
f 5.280736867 _16_ RTR  --- 4 cbr 1020 [13a 10 1 800] ------- [1:0 13:0 29 9] [4] 1 0
r 5.281492105 _13_ AGT  --- 2 cbr 1020 [13a d 0 800] ------- [1:0 13:0 25 13] [2] 6 0
r 5.290422221 _9_ RTR  --- 4 cbr 1020 [13a 9 10 800] ------- [1:0 13:0 29 9] [4] 2 0
f 5.290422221 _9_ RTR  --- 4 cbr 1020 [13a 9 10 800] ------- [1:0 13:0 28 19] [4] 2 0
s 5.300000000 _1_ AGT  --- 15 cbr 1000 [0 0 0 0] ------- [1:0 13:0 32 0] [15] 0 0
r 5.300000000 _1_ RTR  --- 15 cbr 1000 [0 0 0 0] ------- [1:0 13:0 32 0] [15] 0 0
s 5.300000000 _1_ RTR  --- 15 cbr 1020 [0 0 0 0] ------- [1:0 13:0 30 16] [15] 0 0
r 5.300408388 _19_ RTR  --- 4 cbr 1020 [13a 13 9 800] ------- [1:0 13:0 28 19] [4] 3 0
f 5.300408388 _19_ RTR  --- 4 cbr 1020 [13a 13 9 800] ------- [1:0 13:0 27 10] [4] 3 0
r 5.310174812 _10_ RTR  --- 4 cbr 1020 [13a a 13 800] ------- [1:0 13:0 27 10] [4] 4 0
f 5.310174812 _10_ RTR  --- 4 cbr 1020 [13a a 13 800] ------- [1:0 13:0 26 0] [4] 4 0
s 5.320000000 _1_ AGT  --- 16 cbr 1000 [0 0 0 0] ------- [1:0 13:0 32 0] [16] 0 0
r 5.320000000 _1_ RTR  --- 16 cbr 1000 [0 0 0 0] ------- [1:0 13:0 32 0] [16] 0 0
s 5.320000000 _1_ RTR  --- 16 cbr 1020 [0 0 0 0] ------- [1:0 13:0 30 16] [16] 0 0
r 5.320381024 _0_ RTR  --- 4 cbr 1020 [13a 0 a 800] ------- [1:0 13:0 26 0] [4] 5 0
f 5.320381024 _0_ RTR  --- 4 cbr 1020 [13a 0 a 800] ------- [1:0 13:0 25 13] [4] 5 0
r 5.330186076 _13_ AGT  --- 4 cbr 1020 [13a d 0 800] ------- [1:0 13:0 25 13] [4] 6 0
r 5.335870833 _16_ RTR  --- 5 cbr 1020 [13a 10 1 800] ------- [1:0 13:0 30 16] [5] 1 0
f 5.335870833 _16_ RTR  --- 5 cbr 1020 [13a 10 1 800] ------- [1:0 13:0 29 9] [5] 1 0
s 5.340000000 _1_ AGT  --- 17 cbr 1000 [0 0 0 0] ------- [1:0 13:0 32 0] [17] 0 0
r 5.340000000 _1_ RTR  --- 17 cbr 1000 [0 0 0 0] ------- [1:0 13:0 32 0] [17] 0 0
s 5.340000000 _1_ RTR  --- 17 cbr 1020 [0 0 0 0] ------- [1:0 13:0 30 16] [17] 0 0
r 5.345636187 _9_ RTR  --- 5 cbr 1020 [13a 9 10 800] ------- [1:0 13:0 29 9] [5] 2 0
f 5.345636187 _9_ RTR  --- 5 cbr 1020 [13a 9 10 800] ------- [1:0 13:0 28 19] [5] 2 0
r 5.355302355 _19_ RTR  --- 5 cbr 1020 [13a 13 9 800] ------- [1:0 13:0 28 19] [5] 3 0
f 5.355302355 _19_ RTR  --- 5 cbr 1020 [13a 13 9 800] ------- [1:0 13:0 27 10] [5] 3 0
s 5.360000000 _1_ AGT  --- 18 cbr 1000 [0 0 0 0] ------- [1:0 13:0 32 0] [18] 0 0
r 5.360000000 _1_ RTR  --- 18 cbr 1000 [0 0 0 0] ------- [1:0 13:0 32 0] [18] 0 0
s 5.360000000 _1_ RTR  --- 18 cbr 1020 [0 0 0 0] ------- [1:0 13:0 30 16] [18] 0 0
r 5.365348780 _10_ RTR  --- 5 cbr 1020 [13a a 13 800] ------- [1:0 13:0 27 10] [5] 4 0
f 5.365348780 _10_ RTR  --- 5 cbr 1020 [13a a 13 800] ------- [1:0 13:0 26 0] [5] 4 0
r 5.375254992 _0_ RTR  --- 5 cbr 1020 [13a 0 a 800] ------- [1:0 13:0 26 0] [5] 5 0
f 5.375254992 _0_ RTR  --- 5 cbr 1020 [13a 0 a 800] ------- [1:0 13:0 25 13] [5] 5 0
s 5.380000000 _1_ AGT  --- 19 cbr 1000 [0 0 0 0] ------- [1:0 13:0 32 0] [19] 0 0
r 5.380000000 _1_ RTR  --- 19 cbr 1000 [0 0 0 0] ------- [1:0 13:0 32 0] [19] 0 0
s 5.380000000 _1_ RTR  --- 19 cbr 1020 [0 0 0 0] ------- [1:0 13:0 30 16] [19] 0 0
r 5.385520047 _13_ AGT  --- 5 cbr 1020 [13a d 0 800] ------- [1:0 13:0 25 13] [5] 6 0
r 5.389844799 _16_ RTR  --- 6 cbr 1020 [13a 10 1 800] ------- [1:0 13:0 30 16] [6] 1 0
f 5.389844799 _16_ RTR  --- 6 cbr 1020 [13a 10 1 800] ------- [1:0 13:0 29 9] [6] 1 0
r 5.399550486 _16_ RTR  --- 7 cbr 1020 [13a 10 1 800] ------- [1:0 13:0 30 16] [7] 1 0
f 5.399550486 _16_ RTR  --- 7 cbr 1020 [13a 10 1 800] ------- [1:0 13:0 29 9] [7] 1 0
s 5.400000000 _1_ AGT  --- 20 cbr 1000 [0 0 0 0] ------- [1:0 13:0 32 0] [20] 0 0
r 5.400000000 _1_ RTR  --- 20 cbr 1000 [0 0 0 0] ------- [1:0 13:0 32 0] [20] 0 0
s 5.400000000 _1_ RTR  --- 20 cbr 1020 [0 0 0 0] ------- [1:0 13:0 30 16] [20] 0 0
r 5.409696173 _16_ RTR  --- 8 cbr 1020 [13a 10 1 800] ------- [1:0 13:0 30 16] [8] 1 0
f 5.409696173 _16_ RTR  --- 8 cbr 1020 [13a 10 1 800] ------- [1:0 13:0 29 9] [8] 1 0
r 5.419381525 _9_ RTR  --- 6 cbr 1020 [13a 9 10 800] ------- [1:0 13:0 29 9] [6] 2 0
f 5.419381525 _9_ RTR  --- 6 cbr 1020 [13a 9 10 800] ------- [1:0 13:0 28 19] [6] 2 0
s 5.420000000 _1_ AGT  --- 21 cbr 1000 [0 0 0 0] ------- [1:0 13:0 32 0] [21] 0 0
r 5.420000000 _1_ RTR  --- 21 cbr 1000 [0 0 0 0] ------- [1:0 13:0 32 0] [21] 0 0
s 5.420000000 _1_ RTR  --- 21 cbr 1020 [0 0 0 0] ------- [1:0 13:0 30 16] [21] 0 0
r 5.429047696 _19_ RTR  --- 6 cbr 1020 [13a 13 9 800] ------- [1:0 13:0 28 19] [6] 3 0
f 5.429047696 _19_ RTR  --- 6 cbr 1020 [13a 13 9 800] ------- [1:0 13:0 27 10] [6] 3 0
r 5.439158209 _9_ RTR  --- 7 cbr 1020 [13a 9 10 800] ------- [1:0 13:0 29 9] [7] 2 0
f 5.439158209 _9_ RTR  --- 7 cbr 1020 [13a 9 10 800] ------- [1:0 13:0 28 19] [7] 2 0
s 5.440000000 _1_ AGT  --- 22 cbr 1000 [0 0 0 0] ------- [1:0 13:0 32 0] [22] 0 0
r 5.440000000 _1_ RTR  --- 22 cbr 1000 [0 0 0 0] ------- [1:0 13:0 32 0] [22] 0 0
s 5.440000000 _1_ RTR  --- 22 cbr 1020 [0 0 0 0] ------- [1:0 13:0 30 16] [22] 0 0
r 5.448995342 _10_ RTR  --- 6 cbr 1020 [13a a 13 800] ------- [1:0 13:0 27 10] [6] 4 0
f 5.448995342 _10_ RTR  --- 6 cbr 1020 [13a a 13 800] ------- [1:0 13:0 26 0] [6] 4 0
r 5.459141557 _0_ RTR  --- 6 cbr 1020 [13a 0 a 800] ------- [1:0 13:0 26 0] [6] 5 0
f 5.459141557 _0_ RTR  --- 6 cbr 1020 [13a 0 a 800] ------- [1:0 13:0 25 13] [6] 5 0
s 5.460000000 _1_ AGT  --- 23 cbr 1000 [0 0 0 0] ------- [1:0 13:0 32 0] [23] 0 0
r 5.460000000 _1_ RTR  --- 23 cbr 1000 [0 0 0 0] ------- [1:0 13:0 32 0] [23] 0 0
s 5.460000000 _1_ RTR  --- 23 cbr 1020 [0 0 0 0] ------- [1:0 13:0 30 16] [23] 0 0
r 5.468806614 _13_ AGT  --- 6 cbr 1020 [13a d 0 800] ------- [1:0 13:0 25 13] [6] 6 0
r 5.469137869 _9_ RTR  --- 8 cbr 1020 [13a 9 10 800] ------- [1:0 13:0 29 9] [8] 2 0
f 5.469137869 _9_ RTR  --- 8 cbr 1020 [13a 9 10 800] ------- [1:0 13:0 28 19] [8] 2 0
r 5.478824042 _19_ RTR  --- 7 cbr 1020 [13a 13 9 800] ------- [1:0 13:0 28 19] [7] 3 0
f 5.478824042 _19_ RTR  --- 7 cbr 1020 [13a 13 9 800] ------- [1:0 13:0 27 10] [7] 3 0
s 5.480000000 _1_ AGT  --- 24 cbr 1000 [0 0 0 0] ------- [1:0 13:0 32 0] [24] 0 0
r 5.480000000 _1_ RTR  --- 24 cbr 1000 [0 0 0 0] ------- [1:0 13:0 32 0] [24] 0 0
s 5.480000000 _1_ RTR  --- 24 cbr 1020 [0 0 0 0] ------- [1:0 13:0 30 16] [24] 0 0
r 5.488790465 _10_ RTR  --- 7 cbr 1020 [13a a 13 800] ------- [1:0 13:0 27 10] [7] 4 0
f 5.488790465 _10_ RTR  --- 7 cbr 1020 [13a a 13 800] ------- [1:0 13:0 26 0] [7] 4 0
r 5.498776680 _0_ RTR  --- 7 cbr 1020 [13a 0 a 800] ------- [1:0 13:0 26 0] [7] 5 0
f 5.498776680 _0_ RTR  --- 7 cbr 1020 [13a 0 a 800] ------- [1:0 13:0 25 13] [7] 5 0
s 5.500000000 _1_ AGT  --- 25 cbr 1000 [0 0 0 0] ------- [1:0 13:0 32 0] [25] 0 0
r 5.500000000 _1_ RTR  --- 25 cbr 1000 [0 0 0 0] ------- [1:0 13:0 32 0] [25] 0 0
s 5.500000000 _1_ RTR  --- 25 cbr 1020 [0 0 0 0] ------- [1:0 13:0 30 16] [25] 0 0
r 5.508901739 _13_ AGT  --- 7 cbr 1020 [13a d 0 800] ------- [1:0 13:0 25 13] [7] 6 0
s 5.520000000 _1_ AGT  --- 26 cbr 1000 [0 0 0 0] ------- [1:0 13:0 32 0] [26] 0 0
r 5.520000000 _1_ RTR  --- 26 cbr 1000 [0 0 0 0] ------- [1:0 13:0 32 0] [26] 0 0
s 5.520000000 _1_ RTR  --- 26 cbr 1020 [0 0 0 0] ------- [1:0 13:0 30 16] [26] 0 0
r 5.522467114 _19_ RTR  --- 8 cbr 1020 [13a 13 9 800] ------- [1:0 13:0 28 19] [8] 3 0
f 5.522467114 _19_ RTR  --- 8 cbr 1020 [13a 13 9 800] ------- [1:0 13:0 27 10] [8] 3 0
r 5.532493537 _10_ RTR  --- 8 cbr 1020 [13a a 13 800] ------- [1:0 13:0 27 10] [8] 4 0
f 5.532493537 _10_ RTR  --- 8 cbr 1020 [13a a 13 800] ------- [1:0 13:0 26 0] [8] 4 0
s 5.540000000 _1_ AGT  --- 27 cbr 1000 [0 0 0 0] ------- [1:0 13:0 32 0] [27] 0 0
r 5.540000000 _1_ RTR  --- 27 cbr 1000 [0 0 0 0] ------- [1:0 13:0 32 0] [27] 0 0
s 5.540000000 _1_ RTR  --- 27 cbr 1020 [0 0 0 0] ------- [1:0 13:0 30 16] [27] 0 0
D 5.541793291 _1_ RTR  CBK 9 cbr 1020 [13a 10 1 800] ------- [1:0 13:0 30 16] [9] 0 0
D 5.541793291 _1_ RTR  CBK 10 cbr 1020 [0 10 1 800] ------- [1:0 13:0 30 16] [10] 0 0
D 5.541793291 _1_ RTR  CBK 11 cbr 1020 [0 10 1 800] ------- [1:0 13:0 30 16] [11] 0 0
D 5.541793291 _1_ RTR  CBK 12 cbr 1020 [0 10 1 800] ------- [1:0 13:0 30 16] [12] 0 0
D 5.541793291 _1_ RTR  CBK 13 cbr 1020 [0 10 1 800] ------- [1:0 13:0 30 16] [13] 0 0
D 5.541793291 _1_ RTR  CBK 14 cbr 1020 [0 10 1 800] ------- [1:0 13:0 30 16] [14] 0 0
D 5.541793291 _1_ RTR  CBK 15 cbr 1020 [0 10 1 800] ------- [1:0 13:0 30 16] [15] 0 0
D 5.541793291 _1_ RTR  CBK 16 cbr 1020 [0 10 1 800] ------- [1:0 13:0 30 16] [16] 0 0
D 5.541793291 _1_ RTR  CBK 17 cbr 1020 [0 10 1 800] ------- [1:0 13:0 30 16] [17] 0 0
D 5.541793291 _1_ RTR  CBK 18 cbr 1020 [0 10 1 800] ------- [1:0 13:0 30 16] [18] 0 0
D 5.541793291 _1_ RTR  CBK 19 cbr 1020 [0 10 1 800] ------- [1:0 13:0 30 16] [19] 0 0
D 5.541793291 _1_ RTR  CBK 20 cbr 1020 [0 10 1 800] ------- [1:0 13:0 30 16] [20] 0 0
D 5.541793291 _1_ RTR  CBK 21 cbr 1020 [0 10 1 800] ------- [1:0 13:0 30 16] [21] 0 0
D 5.541793291 _1_ RTR  CBK 22 cbr 1020 [0 10 1 800] ------- [1:0 13:0 30 16] [22] 0 0
D 5.541793291 _1_ RTR  CBK 23 cbr 1020 [0 10 1 800] ------- [1:0 13:0 30 16] [23] 0 0
D 5.541793291 _1_ RTR  CBK 24 cbr 1020 [0 10 1 800] ------- [1:0 13:0 30 16] [24] 0 0
D 5.541793291 _1_ RTR  CBK 25 cbr 1020 [0 10 1 800] ------- [1:0 13:0 30 16] [25] 0 0
D 5.541793291 _1_ RTR  CBK 26 cbr 1020 [0 10 1 800] ------- [1:0 13:0 30 16] [26] 0 0
D 5.541793291 _1_ RTR  CBK 27 cbr 1020 [0 10 1 800] ------- [1:0 13:0 30 16] [27] 0 0
s 5.541793291 _1_ RTR  --- 0 AODV 32 [0 0 0 0] ------- [1:255 -1:255 1 0] [0x8 1 [13 0] 0.000000] (ERROR)
r 5.542379753 _0_ RTR  --- 8 cbr 1020 [13a 0 a 800] ------- [1:0 13:0 26 0] [8] 5 0
f 5.542379753 _0_ RTR  --- 8 cbr 1020 [13a 0 a 800] ------- [1:0 13:0 25 13] [8] 5 0
r 5.542653992 _5_ RTR  --- 0 AODV 32 [0 ffffffff 1 800] ------- [1:255 -1:255 1 0] [0x8 1 [13 0] 0.000000] (ERROR)
r 5.552144814 _13_ AGT  --- 8 cbr 1020 [13a d 0 800] ------- [1:0 13:0 25 13] [8] 6 0
s 5.560000000 _1_ AGT  --- 28 cbr 1000 [0 0 0 0] ------- [1:0 13:0 32 0] [28] 0 0
r 5.560000000 _1_ RTR  --- 28 cbr 1000 [0 0 0 0] ------- [1:0 13:0 32 0] [28] 0 0
s 5.560000000 _1_ RTR  --- 0 AODV 48 [0 0 0 0] ------- [1:255 -1:255 8 0] [0x2 1 2 [13 5] [1 8]] (REQUEST)
r 5.561268420 _16_ RTR  --- 0 AODV 48 [0 ffffffff 1 800] ------- [1:255 -1:255 8 0] [0x2 1 2 [13 5] [1 8]] (REQUEST)
r 5.561268701 _5_ RTR  --- 0 AODV 48 [0 ffffffff 1 800] ------- [1:255 -1:255 8 0] [0x2 1 2 [13 5] [1 8]] (REQUEST)