n -t * -s 0  -x 105 -y 206 -Z 0 -z 80  -v circle -c black
n -t * -s 1  -x 805 -y 742 -Z 0 -z 80  -v circle -c black
n -t * -s 2  -x 515 -y 606 -Z 0 -z 80  -v circle -c black
n -t * -s 3  -x 405 -y 342 -Z 0 -z 80  -v circle -c black
n -t * -s 4  -x 675 -y 156 -Z 0 -z 80  -v circle -c black
n -t * -s 5  -x 905 -y 549 -Z 0 -z 80  -v circle -c black
n -t * -s 6  -x 675 -y 336 -Z 0 -z 80  -v circle -c black
n -t * -s 7  -x 555 -y 762 -Z 0 -z 80  -v circle -c black
n -t * -s 8  -x 258 -y 646 -Z 0 -z 80  -v circle -c black
n -t * -s 9  -x 645 -y 522 -Z 0 -z 80  -v circle -c black
n -t * -s 10  -x 265 -y 376 -Z 0 -z 80  -v circle -c black
n -t * -s 11  -x 495 -y 502 -Z 0 -z 80  -v circle -c black
n -t * -s 12  -x 75 -y 426 -Z 0 -z 80  -v circle -c black
n -t * -s 13  -x 145 -y 119 -Z 0 -z 80  -v circle -c black
n -t * -s 14  -x 85 -y 702 -Z 0 -z 80  -v circle -c black
n -t * -s 15  -x 340 -y 36 -Z 0 -z 80  -v circle -c black
n -t * -s 16  -x 758 -y 602 -Z 0 -z 80  -v circle -c black
n -t * -s 17  -x 435 -y 186 -Z 0 -z 80  -v circle -c black
n -t * -s 18  -x 5 -y 2 -Z 0 -z 80  -v circle -c black
n -t * -s 19  -x 515 -y 366 -Z 0 -z 80  -v circle -c black
V -t * -v 1.0a5 -a 0
W -t * -x 1000 -y 1000
A -t * -n 1 -p 0 -o 0x7fffffff -c 30 -a 1
A -t * -h 1 -m 1073741823 -s 0
n -t 0 -s 0 -S DLABEL -l "CH" -L ""
n -t 0 -s 1 -S DLABEL -l "Source" -L ""
n -t 0 -s 13 -S DLABEL -l "Destination" -L ""
n -t 0 -s 2 -S DLABEL -l "N2" -L ""
n -t 0.000000 -s 0 -x 105.000000 -y 206.000000 -U 4.984076 -V 0.398726 -T 5.015974
n -t 0.000000 -s 1 -x 805.000000 -y 742.000000 -U -2.310855 -V -4.433954 -T 138.476857
n -t 0.000000 -s 8 -x 258.000000 -y 646.000000 -U 4.093660 -V 2.870879 -T 18.809572
n -t 0.000000 -s 11 -x 495.000000 -y 502.000000 -U 3.246312 -V -3.802823 -T 21.562931
n -t 0.000000 -s 17 -x 435.000000 -y 186.000000 -U 4.632639 -V 1.881132 -T 71.233700
n -t 1.000000 -s 2 -x 515.000000 -y 606.000000 -U 1.759473 -V -4.680198 -T 56.835200
n -t 1.000000 -s 3 -x 405.000000 -y 342.000000 -U 4.606915 -V 1.943280 -T 59.692881
n -t 1.000000 -s 7 -x 555.000000 -y 762.000000 -U -2.496665 -V -4.332051 -T 148.197706
n -t 1.000000 -s 12 -x 75.000000 -y 426.000000 -U 4.192984 -V -2.723763 -T 149.058512
n -t 1.000000 -s 13 -x 145.000000 -y 119.000000 -U -3.308108 -V -3.749189 -T 9.068627
n -t 1.000000 -s 14 -x 85.000000 -y 702.000000 -U 1.040538 -V -4.890530 -T 105.714521
n -t 1.000000 -s 15 -x 340.000000 -y 36.000000 -U 0.422669 -V 4.982103 -T 111.198022
n -t 1.000000 -s 18 -x 5.000000 -y 2.000000 -U 4.926753 -V 0.852707 -T 21.109240
n -t 1.000000 -s 19 -x 515.000000 -y 366.000000 -U -4.413560 -V -2.349572 -T 77.035317
n -t 2.000000 -s 6 -x 675.000000 -y 336.000000 -U 1.205115 -V 4.852597 -T 62.234717
n -t 2.000000 -s 9 -x 645.000000 -y 522.000000 -U -4.777013 -V 1.476531 -T 46.053881
n -t 2.000000 -s 10 -x 265.000000 -y 376.000000 -U -2.741785 -V 4.181222 -T 58.356148
n -t 2.000000 -s 16 -x 758.000000 -y 602.000000 -U -4.997698 -V 0.151701 -T 118.654625
n -t 3.000000 -s 4 -x 675.000000 -y 156.000000 -U -2.044662 -V 4.562824 -T 46.462458
n -t 3.000000 -s 5 -x 905.000000 -y 549.000000 -U -1.750820 -V -4.683442 -T 68.539332
+ -t 5.000000000 -s 1 -d -1 -p cbr -e 1000 -c 2 -a 0 -i 0 -k AGT 
- -t 5.000000000 -s 1 -d -1 -p cbr -e 1000 -c 2 -a 0 -i 0 -k AGT
h -t 5.000000000 -s 1 -d -1 -p cbr -e 1000 -c 2 -a 0 -i 0 -k AGT
+ -t 5.000000000 -s 1 -d -1 -p AODV -e 48 -c 2 -a 0 -i 0 -k RTR 
- -t 5.000000000 -s 1 -d -1 -p AODV -e 48 -c 2 -a 0 -i 0 -k RTR
h -t 5.000000000 -s 1 -d -1 -p AODV -e 48 -c 2 -a 0 -i 0 -k RTR
r -t 5.001408426 -s 16 -d -1 -p AODV -e 48 -c 2 -a 0 -i 0 -k RTR
r -t 5.001408700 -s 5 -d -1 -p AODV -e 48 -c 2 -a 0 -i 0 -k RTR
r -t 5.001408832 -s 7 -d -1 -p AODV -e 48 -c 2 -a 0 -i 0 -k RTR
+ -t 5.001550472 -s 16 -d -1 -p AODV -e 48 -c 2 -a 0 -i 0 -k RTR 
- -t 5.001550472 -s 16 -d -1 -p AODV -e 48 -c 2 -a 0 -i 0 -k RTR
h -t 5.001550472 -s 16 -d -1 -p AODV -e 48 -c 2 -a 0 -i 0 -k RTR
+ -t 5.002289927 -s 5 -d -1 -p AODV -e 48 -c 2 -a 0 -i 0 -k RTR 
- -t 5.002289927 -s 5 -d -1 -p AODV -e 48 -c 2 -a 0 -i 0 -k RTR
h -t 5.002289927 -s 5 -d -1 -p AODV -e 48 -c 2 -a 0 -i 0 -k RTR
r -t 5.002498898 -s 1 -d -1 -p AODV -e 48 -c 2 -a 0 -i 0 -k RTR
r -t 5.002498925 -s 9 -d -1 -p AODV -e 48 -c 2 -a 0 -i 0 -k RTR
r -t 5.002499041 -s 5 -d -1 -p AODV -e 48 -c 2 -a 0 -i 0 -k RTR
r -t 5.002499211 -s 2 -d -1 -p AODV -e 48 -c 2 -a 0 -i 0 -k RTR
r -t 5.002499285 -s 7 -d -1 -p AODV -e 48 -c 2 -a 0 -i 0 -k RTR
r -t 5.003557609 -s 16 -d -1 -p AODV -e 48 -c 2 -a 0 -i 0 -k RTR
r -t 5.003557741 -s 1 -d -1 -p AODV -e 48 -c 2 -a 0 -i 0 -k RTR
+ -t 5.004844942 -s 9 -d -1 -p AODV -e 48 -c 2 -a 0 -i 0 -k RTR 
- -t 5.004844942 -s 9 -d -1 -p AODV -e 48 -c 2 -a 0 -i 0 -k RTR
h -t 5.004844942 -s 9 -d -1 -p AODV -e 48 -c 2 -a 0 -i 0 -k RTR
+ -t 5.005820566 -s 7 -d -1 -p AODV -e 48 -c 2 -a 0 -i 0 -k RTR 
- -t 5.005820566 -s 7 -d -1 -p AODV -e 48 -c 2 -a 0 -i 0 -k RTR
h -t 5.005820566 -s 7 -d -1 -p AODV -e 48 -c 2 -a 0 -i 0 -k RTR
r -t 5.006033357 -s 2 -d -1 -p AODV -e 48 -c 2 -a 0 -i 0 -k RTR
r -t 5.006033366 -s 11 -d -1 -p AODV -e 48 -c 2 -a 0 -i 0 -k RTR
r -t 5.006033394 -s 16 -d -1 -p AODV -e 48 -c 2 -a 0 -i 0 -k RTR
r -t 5.006033550 -s 6 -d -1 -p AODV -e 48 -c 2 -a 0 -i 0 -k RTR
r -t 5.006033662 -s 19 -d -1 -p AODV -e 48 -c 2 -a 0 -i 0 -k RTR
r -t 5.006033724 -s 7 -d -1 -p AODV -e 48 -c 2 -a 0 -i 0 -k RTR
r -t 5.006972254 -s 2 -d -1 -p AODV -e 48 -c 2 -a 0 -i 0 -k RTR
r -t 5.006972505 -s 9 -d -1 -p AODV -e 48 -c 2 -a 0 -i 0 -k RTR
r -t 5.006972536 -s 16 -d -1 -p AODV -e 48 -c 2 -a 0 -i 0 -k RTR
r -t 5.006972556 -s 1 -d -1 -p AODV -e 48 -c 2 -a 0 -i 0 -k RTR
+ -t 5.007171632 -s 6 -d -1 -p AODV -e 48 -c 2 -a 0 -i 0 -k RTR 
- -t 5.007171632 -s 6 -d -1 -p AODV -e 48 -c 2 -a 0 -i 0 -k RTR
h -t 5.007171632 -s 6 -d -1 -p AODV -e 48 -c 2 -a 0 -i 0 -k RTR
r -t 5.008715715 -s 19 -d -1 -p AODV -e 48 -c 2 -a 0 -i 0 -k RTR
r -t 5.008715718 -s 9 -d -1 -p AODV -e 48 -c 2 -a 0 -i 0 -k RTR
r -t 5.008715729 -s 4 -d -1 -p AODV -e 48 -c 2 -a 0 -i 0 -k RTR
r -t 5.008715822 -s 11 -d -1 -p AODV -e 48 -c 2 -a 0 -i 0 -k RTR
+ -t 5.008887862 -s 2 -d -1 -p AODV -e 48 -c 2 -a 0 -i 0 -k RTR 
- -t 5.008887862 -s 2 -d -1 -p AODV -e 48 -c 2 -a 0 -i 0 -k RTR
h -t 5.008887862 -s 2 -d -1 -p AODV -e 48 -c 2 -a 0 -i 0 -k RTR
r -t 5.010178406 -s 11 -d -1 -p AODV -e 48 -c 2 -a 0 -i 0 -k RTR
r -t 5.010178471 -s 9 -d -1 -p AODV -e 48 -c 2 -a 0 -i 0 -k RTR
r -t 5.010178587 -s 7 -d -1 -p AODV -e 48 -c 2 -a 0 -i 0 -k RTR
r -t 5.010178794 -s 16 -d -1 -p AODV -e 48 -c 2 -a 0 -i 0 -k RTR
r -t 5.010178830 -s 19 -d -1 -p AODV -e 48 -c 2 -a 0 -i 0 -k RTR
+ -t 5.012434042 -s 11 -d -1 -p AODV -e 48 -c 2 -a 0 -i 0 -k RTR 
- -t 5.012434042 -s 11 -d -1 -p AODV -e 48 -c 2 -a 0 -i 0 -k RTR
h -t 5.012434042 -s 11 -d -1 -p AODV -e 48 -c 2 -a 0 -i 0 -k RTR
r -t 5.013402392 -s 2 -d -1 -p AODV -e 48 -c 2 -a 0 -i 0 -k RTR
r -t 5.013402466 -s 9 -d -1 -p AODV -e 48 -c 2 -a 0 -i 0 -k RTR
r -t 5.013402466 -s 19 -d -1 -p AODV -e 48 -c 2 -a 0 -i 0 -k RTR
r -t 5.013402574 -s 3 -d -1 -p AODV -e 48 -c 2 -a 0 -i 0 -k RTR
r -t 5.013402753 -s 6 -d -1 -p AODV -e 48 -c 2 -a 0 -i 0 -k RTR
+ -t 5.014630939 -s 19 -d -1 -p AODV -e 48 -c 2 -a 0 -i 0 -k RTR 
- -t 5.014630939 -s 19 -d -1 -p AODV -e 48 -c 2 -a 0 -i 0 -k RTR
h -t 5.014630939 -s 19 -d -1 -p AODV -e 48 -c 2 -a 0 -i 0 -k RTR
r -t 5.015759186 -s 3 -d -1 -p AODV -e 48 -c 2 -a 0 -i 0 -k RTR
r -t 5.015759363 -s 11 -d -1 -p AODV -e 48 -c 2 -a 0 -i 0 -k RTR
r -t 5.015759491 -s 17 -d -1 -p AODV -e 48 -c 2 -a 0 -i 0 -k RTR
r -t 5.015759544 -s 6 -d -1 -p AODV -e 48 -c 2 -a 0 -i 0 -k RTR
r -t 5.015759659 -s 9 -d -1 -p AODV -e 48 -c 2 -a 0 -i 0 -k RTR
r -t 5.015759712 -s 2 -d -1 -p AODV -e 48 -c 2 -a 0 -i 0 -k RTR
r -t 5.015759748 -s 10 -d -1 -p AODV -e 48 -c 2 -a 0 -i 0 -k RTR
+ -t 5.016786015 -s 4 -d -1 -p AODV -e 48 -c 2 -a 0 -i 0 -k RTR 
- -t 5.016786015 -s 4 -d -1 -p AODV -e 48 -c 2 -a 0 -i 0 -k RTR
h -t 5.016786015 -s 4 -d -1 -p AODV -e 48 -c 2 -a 0 -i 0 -k RTR
+ -t 5.017931342 -s 10 -d -1 -p AODV -e 48 -c 2 -a 0 -i 0 -k RTR 
- -t 5.017931342 -s 10 -d -1 -p AODV -e 48 -c 2 -a 0 -i 0 -k RTR
h -t 5.017931342 -s 10 -d -1 -p AODV -e 48 -c 2 -a 0 -i 0 -k RTR
+ -t 5.018063733 -s 3 -d -1 -p AODV -e 48 -c 2 -a 0 -i 0 -k RTR 
- -t 5.018063733 -s 3 -d -1 -p AODV -e 48 -c 2 -a 0 -i 0 -k RTR
h -t 5.018063733 -s 3 -d -1 -p AODV -e 48 -c 2 -a 0 -i 0 -k RTR
r -t 5.018094633 -s 6 -d -1 -p AODV -e 48 -c 2 -a 0 -i 0 -k RTR
r -t 5.018094731 -s 17 -d -1 -p AODV -e 48 -c 2 -a 0 -i 0 -k RTR
r -t 5.019398140 -s 12 -d -1 -p AODV -e 48 -c 2 -a 0 -i 0 -k RTR
r -t 5.019398154 -s 3 -d -1 -p AODV -e 48 -c 2 -a 0 -i 0 -k RTR
r -t 5.019398319 -s 0 -d -1 -p AODV -e 48 -c 2 -a 0 -i 0 -k RTR
r -t 5.019398392 -s 19 -d -1 -p AODV -e 48 -c 2 -a 0 -i 0 -k RTR
+ -t 5.020000000 -s 1 -d -1 -p cbr -e 1000 -c 2 -a 0 -i 1 -k AGT 
- -t 5.020000000 -s 1 -d -1 -p cbr -e 1000 -c 2 -a 0 -i 1 -k AGT
h -t 5.020000000 -s 1 -d -1 -p cbr -e 1000 -c 2 -a 0 -i 1 -k AGT
+ -t 5.020490303 -s 0 -d -1 -p AODV -e 48 -c 2 -a 0 -i 0 -k RTR 
- -t 5.020490303 -s 0 -d -1 -p AODV -e 48 -c 2 -a 0 -i 0 -k RTR
h -t 5.020490303 -s 0 -d -1 -p AODV -e 48 -c 2 -a 0 -i 0 -k RTR
r -t 5.020616401 -s 19 -d -1 -p AODV -e 48 -c 2 -a 0 -i 0 -k RTR
r -t 5.020616681 -s 17 -d -1 -p AODV -e 48 -c 2 -a 0 -i 0 -k RTR
r -t 5.020616686 -s 11 -d -1 -p AODV -e 48 -c 2 -a 0 -i 0 -k RTR
r -t 5.020616725 -s 10 -d -1 -p AODV -e 48 -c 2 -a 0 -i 0 -k RTR
r -t 5.022079588 -s 13 -d -1 -p AODV -e 48 -c 2 -a 0 -i 0 -k RTR
+ -t 5.022079588 -s 13 -d 0 -p AODV -e 44 -c 2 -a 0 -i 0 -k RTR 
- -t 5.022079588 -s 13 -d 0 -p AODV -e 44 -c 2 -a 0 -i 0 -k RTR
h -t 5.022079588 -s 13 -d 0 -p AODV -e 44 -c 2 -a 0 -i 0 -k RTR
r -t 5.022079942 -s 12 -d -1 -p AODV -e 48 -c 2 -a 0 -i 0 -k RTR
r -t 5.022079976 -s 10 -d -1 -p AODV -e 48 -c 2 -a 0 -i 0 -k RTR
r -t 5.022080001 -s 18 -d -1 -p AODV -e 48 -c 2 -a 0 -i 0 -k RTR
+ -t 5.023453331 -s 12 -d -1 -p AODV -e 48 -c 2 -a 0 -i 0 -k RTR 
- -t 5.023453331 -s 12 -d -1 -p AODV -e 48 -c 2 -a 0 -i 0 -k RTR
h -t 5.023453331 -s 12 -d -1 -p AODV -e 48 -c 2 -a 0 -i 0 -k RTR
+ -t 5.024157744 -s 17 -d -1 -p AODV -e 48 -c 2 -a 0 -i 0 -k RTR 
- -t 5.024157744 -s 17 -d -1 -p AODV -e 48 -c 2 -a 0 -i 0 -k RTR
h -t 5.024157744 -s 17 -d -1 -p AODV -e 48 -c 2 -a 0 -i 0 -k RTR
+ -t 5.026900017 -s 0 -d 10 -p AODV -e 44 -c 2 -a 0 -i 0 -k RTR 
- -t 5.026900017 -s 0 -d 10 -p AODV -e 44 -c 2 -a 0 -i 0 -k RTR
h -t 5.026900017 -s 0 -d 10 -p AODV -e 44 -c 2 -a 0 -i 0 -k RTR
r -t 5.028971275 -s 10 -d -1 -p AODV -e 48 -c 2 -a 0 -i 0 -k RTR
r -t 5.028971420 -s 0 -d -1 -p AODV -e 48 -c 2 -a 0 -i 0 -k RTR
+ -t 5.031542651 -s 18 -d -1 -p AODV -e 48 -c 2 -a 0 -i 0 -k RTR 
- -t 5.031542651 -s 18 -d -1 -p AODV -e 48 -c 2 -a 0 -i 0 -k RTR
h -t 5.031542651 -s 18 -d -1 -p AODV -e 48 -c 2 -a 0 -i 0 -k RTR
+ -t 5.032465688 -s 10 -d 19 -p AODV -e 44 -c 2 -a 0 -i 0 -k RTR 
- -t 5.032465688 -s 10 -d 19 -p AODV -e 44 -c 2 -a 0 -i 0 -k RTR
h -t 5.032465688 -s 10 -d 19 -p AODV -e 44 -c 2 -a 0 -i 0 -k RTR
r -t 5.034043665 -s 13 -d -1 -p AODV -e 48 -c 2 -a 0 -i 0 -k RTR
r -t 5.034043942 -s 0 -d -1 -p AODV -e 48 -c 2 -a 0 -i 0 -k RTR
+ -t 5.038767336 -s 19 -d 9 -p AODV -e 44 -c 2 -a 0 -i 0 -k RTR 
- -t 5.038767336 -s 19 -d 9 -p AODV -e 44 -c 2 -a 0 -i 0 -k RTR
h -t 5.038767336 -s 19 -d 9 -p AODV -e 44 -c 2 -a 0 -i 0 -k RTR
+ -t 5.040000000 -s 1 -d -1 -p cbr -e 1000 -c 2 -a 0 -i 2 -k AGT 
- -t 5.040000000 -s 1 -d -1 -p cbr -e 1000 -c 2 -a 0 -i 2 -k AGT
h -t 5.040000000 -s 1 -d -1 -p cbr -e 1000 -c 2 -a 0 -i 2 -k AGT
r -t 5.040109985 -s 3 -d -1 -p AODV -e 48 -c 2 -a 0 -i 0 -k RTR
r -t 5.040110010 -s 19 -d -1 -p AODV -e 48 -c 2 -a 0 -i 0 -k RTR
r -t 5.040110064 -s 15 -d -1 -p AODV -e 48 -c 2 -a 0 -i 0 -k RTR
r -t 5.040110173 -s 4 -d -1 -p AODV -e 48 -c 2 -a 0 -i 0 -k RTR
+ -t 5.044528051 -s 9 -d 16 -p AODV -e 44 -c 2 -a 0 -i 0 -k RTR 
- -t 5.044528051 -s 9 -d 16 -p AODV -e 44 -c 2 -a 0 -i 0 -k RTR
h -t 5.044528051 -s 9 -d 16 -p AODV -e 44 -c 2 -a 0 -i 0 -k RTR
+ -t 5.049418215 -s 16 -d 1 -p AODV -e 44 -c 2 -a 0 -i 0 -k RTR 
- -t 5.049418215 -s 16 -d 1 -p AODV -e 44 -c 2 -a 0 -i 0 -k RTR
h -t 5.049418215 -s 16 -d 1 -p AODV -e 44 -c 2 -a 0 -i 0 -k RTR
+ -t 5.049578226 -s 15 -d -1 -p AODV -e 48 -c 2 -a 0 -i 0 -k RTR 
- -t 5.049578226 -s 15 -d -1 -p AODV -e 48 -c 2 -a 0 -i 0 -k RTR
h -t 5.049578226 -s 15 -d -1 -p AODV -e 48 -c 2 -a 0 -i 0 -k RTR
r -t 5.050646831 -s 17 -d -1 -p AODV -e 48 -c 2 -a 0 -i 0 -k RTR
r -t 5.050646944 -s 13 -d -1 -p AODV -e 48 -c 2 -a 0 -i 0 -k RTR
+ -t 5.054648192 -s 1 -d 16 -p cbr -e 1020 -c 2 -a 0 -i 0 -k RTR 
- -t 5.054648192 -s 1 -d 16 -p cbr -e 1020 -c 2 -a 0 -i 0 -k RTR
h -t 5.054648192 -s 1 -d 16 -p cbr -e 1020 -c 2 -a 0 -i 0 -k RTR
+ -t 5.060000000 -s 1 -d -1 -p cbr -e 1000 -c 2 -a 0 -i 3 -k AGT 
- -t 5.060000000 -s 1 -d -1 -p cbr -e 1000 -c 2 -a 0 -i 3 -k AGT
h -t 5.060000000 -s 1 -d -1 -p cbr -e 1000 -c 2 -a 0 -i 3 -k AGT
+ -t 5.060000000 -s 1 -d 16 -p cbr -e 1020 -c 2 -a 0 -i 3 -k RTR 
- -t 5.060000000 -s 1 -d 16 -p cbr -e 1020 -c 2 -a 0 -i 3 -k RTR
h -t 5.060000000 -s 1 -d 16 -p cbr -e 1020 -c 2 -a 0 -i 3 -k RTR
+ -t 5.064648192 -s 1 -d 16 -p cbr -e 1020 -c 2 -a 0 -i 1 -k RTR 
- -t 5.064648192 -s 1 -d 16 -p cbr -e 1020 -c 2 -a 0 -i 1 -k RTR
h -t 5.064648192 -s 1 -d 16 -p cbr -e 1020 -c 2 -a 0 -i 1 -k RTR
+ -t 5.064653468 -s 16 -d 9 -p cbr -e 1020 -c 2 -a 0 -i 0 -k RTR 
- -t 5.064653468 -s 16 -d 9 -p cbr -e 1020 -c 2 -a 0 -i 0 -k RTR
h -t 5.064653468 -s 16 -d 9 -p cbr -e 1020 -c 2 -a 0 -i 0 -k RTR
+ -t 5.074439168 -s 16 -d 9 -p cbr -e 1020 -c 2 -a 0 -i 3 -k RTR 
- -t 5.074439168 -s 16 -d 9 -p cbr -e 1020 -c 2 -a 0 -i 3 -k RTR
h -t 5.074439168 -s 16 -d 9 -p cbr -e 1020 -c 2 -a 0 -i 3 -k RTR
+ -t 5.074648192 -s 1 -d 16 -p cbr -e 1020 -c 2 -a 0 -i 2 -k RTR 
- -t 5.074648192 -s 1 -d 16 -p cbr -e 1020 -c 2 -a 0 -i 2 -k RTR
h -t 5.074648192 -s 1 -d 16 -p cbr -e 1020 -c 2 -a 0 -i 2 -k RTR
+ -t 5.080000000 -s 1 -d -1 -p cbr -e 1000 -c 2 -a 0 -i 4 -k AGT 
- -t 5.080000000 -s 1 -d -1 -p cbr -e 1000 -c 2 -a 0 -i 4 -k AGT
h -t 5.080000000 -s 1 -d -1 -p cbr -e 1000 -c 2 -a 0 -i 4 -k AGT
+ -t 5.080000000 -s 1 -d 16 -p cbr -e 1020 -c 2 -a 0 -i 4 -k RTR 
- -t 5.080000000 -s 1 -d 16 -p cbr -e 1020 -c 2 -a 0 -i 4 -k RTR
h -t 5.080000000 -s 1 -d 16 -p cbr -e 1020 -c 2 -a 0 -i 4 -k RTR
+ -t 5.084164869 -s 16 -d 9 -p cbr -e 1020 -c 2 -a 0 -i 1 -k RTR 
- -t 5.084164869 -s 16 -d 9 -p cbr -e 1020 -c 2 -a 0 -i 1 -k RTR
h -t 5.084164869 -s 16 -d 9 -p cbr -e 1020 -c 2 -a 0 -i 1 -k RTR
+ -t 5.093930224 -s 9 -d 19 -p cbr -e 1020 -c 2 -a 0 -i 0 -k RTR 
- -t 5.093930224 -s 9 -d 19 -p cbr -e 1020 -c 2 -a 0 -i 0 -k RTR
h -t 5.093930224 -s 9 -d 19 -p cbr -e 1020 -c 2 -a 0 -i 0 -k RTR
+ -t 5.100000000 -s 1 -d -1 -p cbr -e 1000 -c 2 -a 0 -i 5 -k AGT 
- -t 5.100000000 -s 1 -d -1 -p cbr -e 1000 -c 2 -a 0 -i 5 -k AGT
h -t 5.100000000 -s 1 -d -1 -p cbr -e 1000 -c 2 -a 0 -i 5 -k AGT
+ -t 5.100000000 -s 1 -d 16 -p cbr -e 1020 -c 2 -a 0 -i 5 -k RTR 
- -t 5.100000000 -s 1 -d 16 -p cbr -e 1020 -c 2 -a 0 -i 5 -k RTR
h -t 5.100000000 -s 1 -d 16 -p cbr -e 1020 -c 2 -a 0 -i 5 -k RTR
+ -t 5.103716386 -s 19 -d 10 -p cbr -e 1020 -c 2 -a 0 -i 0 -k RTR 
- -t 5.103716386 -s 19 -d 10 -p cbr -e 1020 -c 2 -a 0 -i 0 -k RTR
h -t 5.103716386 -s 19 -d 10 -p cbr -e 1020 -c 2 -a 0 -i 0 -k RTR
+ -t 5.113822812 -s 10 -d 0 -p cbr -e 1020 -c 2 -a 0 -i 0 -k RTR 
- -t 5.113822812 -s 10 -d 0 -p cbr -e 1020 -c 2 -a 0 -i 0 -k RTR
h -t 5.113822812 -s 10 -d 0 -p cbr -e 1020 -c 2 -a 0 -i 0 -k RTR
+ -t 5.120000000 -s 1 -d -1 -p cbr -e 1000 -c 2 -a 0 -i 6 -k AGT 
- -t 5.120000000 -s 1 -d -1 -p cbr -e 1000 -c 2 -a 0 -i 6 -k AGT
h -t 5.120000000 -s 1 -d -1 -p cbr -e 1000 -c 2 -a 0 -i 6 -k AGT
+ -t 5.120000000 -s 1 -d 16 -p cbr -e 1020 -c 2 -a 0 -i 6 -k RTR 
- -t 5.120000000 -s 1 -d 16 -p cbr -e 1020 -c 2 -a 0 -i 6 -k RTR
h -t 5.120000000 -s 1 -d 16 -p cbr -e 1020 -c 2 -a 0 -i 6 -k RTR
+ -t 5.123789020 -s 0 -d 13 -p cbr -e 1020 -c 2 -a 0 -i 0 -k RTR 
- -t 5.123789020 -s 0 -d 13 -p cbr -e 1020 -c 2 -a 0 -i 0 -k RTR
h -t 5.123789020 -s 0 -d 13 -p cbr -e 1020 -c 2 -a 0 -i 0 -k RTR
r -t 5.133674065 -s 13 -d 13 -p cbr -e 1020 -c 2 -a 0 -i 0 -k AGT
+ -t 5.133945409 -s 9 -d 19 -p cbr -e 1020 -c 2 -a 0 -i 3 -k RTR 
- -t 5.133945409 -s 9 -d 19 -p cbr -e 1020 -c 2 -a 0 -i 3 -k RTR
h -t 5.133945409 -s 9 -d 19 -p cbr -e 1020 -c 2 -a 0 -i 3 -k RTR
+ -t 5.140000000 -s 1 -d -1 -p cbr -e 1000 -c 2 -a 0 -i 7 -k AGT 
- -t 5.140000000 -s 1 -d -1 -p cbr -e 1000 -c 2 -a 0 -i 7 -k AGT
h -t 5.140000000 -s 1 -d -1 -p cbr -e 1000 -c 2 -a 0 -i 7 -k AGT
+ -t 5.140000000 -s 1 -d 16 -p cbr -e 1020 -c 2 -a 0 -i 7 -k RTR 
- -t 5.140000000 -s 1 -d 16 -p cbr -e 1020 -c 2 -a 0 -i 7 -k RTR
h -t 5.140000000 -s 1 -d 16 -p cbr -e 1020 -c 2 -a 0 -i 7 -k RTR
+ -t 5.144011216 -s 9 -d 19 -p cbr -e 1020 -c 2 -a 0 -i 1 -k RTR 
- -t 5.144011216 -s 9 -d 19 -p cbr -e 1020 -c 2 -a 0 -i 1 -k RTR
h -t 5.144011216 -s 9 -d 19 -p cbr -e 1020 -c 2 -a 0 -i 1 -k RTR
+ -t 5.153717379 -s 19 -d 10 -p cbr -e 1020 -c 2 -a 0 -i 3 -k RTR 
- -t 5.153717379 -s 19 -d 10 -p cbr -e 1020 -c 2 -a 0 -i 3 -k RTR
h -t 5.153717379 -s 19 -d 10 -p cbr -e 1020 -c 2 -a 0 -i 3 -k RTR
+ -t 5.160000000 -s 1 -d -1 -p cbr -e 1000 -c 2 -a 0 -i 8 -k AGT 
- -t 5.160000000 -s 1 -d -1 -p cbr -e 1000 -c 2 -a 0 -i 8 -k AGT
h -t 5.160000000 -s 1 -d -1 -p cbr -e 1000 -c 2 -a 0 -i 8 -k AGT
+ -t 5.160000000 -s 1 -d 16 -p cbr -e 1020 -c 2 -a 0 -i 8 -k RTR 
- -t 5.160000000 -s 1 -d 16 -p cbr -e 1020 -c 2 -a 0 -i 8 -k RTR
h -t 5.160000000 -s 1 -d 16 -p cbr -e 1020 -c 2 -a 0 -i 8 -k RTR
+ -t 5.163543804 -s 10 -d 0 -p cbr -e 1020 -c 2 -a 0 -i 3 -k RTR 
- -t 5.163543804 -s 10 -d 0 -p cbr -e 1020 -c 2 -a 0 -i 3 -k RTR
h -t 5.163543804 -s 10 -d 0 -p cbr -e 1020 -c 2 -a 0 -i 3 -k RTR
+ -t 5.173210013 -s 0 -d 13 -p cbr -e 1020 -c 2 -a 0 -i 3 -k RTR 
- -t 5.173210013 -s 0 -d 13 -p cbr -e 1020 -c 2 -a 0 -i 3 -k RTR
h -t 5.173210013 -s 0 -d 13 -p cbr -e 1020 -c 2 -a 0 -i 3 -k RTR
+ -t 5.180000000 -s 1 -d -1 -p cbr -e 1000 -c 2 -a 0 -i 9 -k AGT 
- -t 5.180000000 -s 1 -d -1 -p cbr -e 1000 -c 2 -a 0 -i 9 -k AGT
h -t 5.180000000 -s 1 -d -1 -p cbr -e 1000 -c 2 -a 0 -i 9 -k AGT
+ -t 5.180000000 -s 1 -d 16 -p cbr -e 1020 -c 2 -a 0 -i 9 -k RTR 
- -t 5.180000000 -s 1 -d 16 -p cbr -e 1020 -c 2 -a 0 -i 9 -k RTR
h -t 5.180000000 -s 1 -d 16 -p cbr -e 1020 -c 2 -a 0 -i 9 -k RTR
r -t 5.183195060 -s 13 -d 13 -p cbr -e 1020 -c 2 -a 0 -i 3 -k AGT
+ -t 5.198580450 -s 19 -d 10 -p cbr -e 1020 -c 2 -a 0 -i 1 -k RTR 
- -t 5.198580450 -s 19 -d 10 -p cbr -e 1020 -c 2 -a 0 -i 1 -k RTR
h -t 5.198580450 -s 19 -d 10 -p cbr -e 1020 -c 2 -a 0 -i 1 -k RTR
+ -t 5.200000000 -s 1 -d -1 -p cbr -e 1000 -c 2 -a 0 -i 10 -k AGT 
- -t 5.200000000 -s 1 -d -1 -p cbr -e 1000 -c 2 -a 0 -i 10 -k AGT
h -t 5.200000000 -s 1 -d -1 -p cbr -e 1000 -c 2 -a 0 -i 10 -k AGT
+ -t 5.200000000 -s 1 -d 16 -p cbr -e 1020 -c 2 -a 0 -i 10 -k RTR 
- -t 5.200000000 -s 1 -d 16 -p cbr -e 1020 -c 2 -a 0 -i 10 -k RTR
h -t 5.200000000 -s 1 -d 16 -p cbr -e 1020 -c 2 -a 0 -i 10 -k RTR
+ -t 5.208246875 -s 10 -d 0 -p cbr -e 1020 -c 2 -a 0 -i 1 -k RTR 
- -t 5.208246875 -s 10 -d 0 -p cbr -e 1020 -c 2 -a 0 -i 1 -k RTR
h -t 5.208246875 -s 10 -d 0 -p cbr -e 1020 -c 2 -a 0 -i 1 -k RTR
+ -t 5.218433085 -s 0 -d 13 -p cbr -e 1020 -c 2 -a 0 -i 1 -k RTR 
- -t 5.218433085 -s 0 -d 13 -p cbr -e 1020 -c 2 -a 0 -i 1 -k RTR
h -t 5.218433085 -s 0 -d 13 -p cbr -e 1020 -c 2 -a 0 -i 1 -k RTR
+ -t 5.220000000 -s 1 -d -1 -p cbr -e 1000 -c 2 -a 0 -i 11 -k AGT 
- -t 5.220000000 -s 1 -d -1 -p cbr -e 1000 -c 2 -a 0 -i 11 -k AGT
h -t 5.220000000 -s 1 -d -1 -p cbr -e 1000 -c 2 -a 0 -i 11 -k AGT
+ -t 5.220000000 -s 1 -d 16 -p cbr -e 1020 -c 2 -a 0 -i 11 -k RTR 
- -t 5.220000000 -s 1 -d 16 -p cbr -e 1020 -c 2 -a 0 -i 11 -k RTR
h -t 5.220000000 -s 1 -d 16 -p cbr -e 1020 -c 2 -a 0 -i 11 -k RTR
r -t 5.228518133 -s 13 -d 13 -p cbr -e 1020 -c 2 -a 0 -i 1 -k AGT
+ -t 5.232042899 -s 16 -d 9 -p cbr -e 1020 -c 2 -a 0 -i 2 -k RTR 
- -t 5.232042899 -s 16 -d 9 -p cbr -e 1020 -c 2 -a 0 -i 2 -k RTR
h -t 5.232042899 -s 16 -d 9 -p cbr -e 1020 -c 2 -a 0 -i 2 -k RTR
+ -t 5.240000000 -s 1 -d -1 -p cbr -e 1000 -c 2 -a 0 -i 12 -k AGT 
- -t 5.240000000 -s 1 -d -1 -p cbr -e 1000 -c 2 -a 0 -i 12 -k AGT
h -t 5.240000000 -s 1 -d -1 -p cbr -e 1000 -c 2 -a 0 -i 12 -k AGT
+ -t 5.240000000 -s 1 -d 16 -p cbr -e 1020 -c 2 -a 0 -i 12 -k RTR 
- -t 5.240000000 -s 1 -d 16 -p cbr -e 1020 -c 2 -a 0 -i 12 -k RTR
h -t 5.240000000 -s 1 -d 16 -p cbr -e 1020 -c 2 -a 0 -i 12 -k RTR
+ -t 5.241768254 -s 9 -d 19 -p cbr -e 1020 -c 2 -a 0 -i 2 -k RTR 
- -t 5.241768254 -s 9 -d 19 -p cbr -e 1020 -c 2 -a 0 -i 2 -k RTR
h -t 5.241768254 -s 9 -d 19 -p cbr -e 1020 -c 2 -a 0 -i 2 -k RTR
+ -t 5.251454419 -s 19 -d 10 -p cbr -e 1020 -c 2 -a 0 -i 2 -k RTR 
- -t 5.251454419 -s 19 -d 10 -p cbr -e 1020 -c 2 -a 0 -i 2 -k RTR
h -t 5.251454419 -s 19 -d 10 -p cbr -e 1020 -c 2 -a 0 -i 2 -k RTR
+ -t 5.260000000 -s 1 -d -1 -p cbr -e 1000 -c 2 -a 0 -i 13 -k AGT 
- -t 5.260000000 -s 1 -d -1 -p cbr -e 1000 -c 2 -a 0 -i 13 -k AGT
h -t 5.260000000 -s 1 -d -1 -p cbr -e 1000 -c 2 -a 0 -i 13 -k AGT
+ -t 5.260000000 -s 1 -d 16 -p cbr -e 1020 -c 2 -a 0 -i 13 -k RTR 
- -t 5.260000000 -s 1 -d 16 -p cbr -e 1020 -c 2 -a 0 -i 13 -k RTR
h -t 5.260000000 -s 1 -d 16 -p cbr -e 1020 -c 2 -a 0 -i 13 -k RTR
+ -t 5.261180844 -s 10 -d 0 -p cbr -e 1020 -c 2 -a 0 -i 2 -k RTR 
- -t 5.261180844 -s 10 -d 0 -p cbr -e 1020 -c 2 -a 0 -i 2 -k RTR
h -t 5.261180844 -s 10 -d 0 -p cbr -e 1020 -c 2 -a 0 -i 2 -k RTR
+ -t 5.271287055 -s 0 -d 13 -p cbr -e 1020 -c 2 -a 0 -i 2 -k RTR 
- -t 5.271287055 -s 0 -d 13 -p cbr -e 1020 -c 2 -a 0 -i 2 -k RTR
h -t 5.271287055 -s 0 -d 13 -p cbr -e 1020 -c 2 -a 0 -i 2 -k RTR
+ -t 5.280000000 -s 1 -d -1 -p cbr -e 1000 -c 2 -a 0 -i 14 -k AGT 
- -t 5.280000000 -s 1 -d -1 -p cbr -e 1000 -c 2 -a 0 -i 14 -k AGT
h -t 5.280000000 -s 1 -d -1 -p cbr -e 1000 -c 2 -a 0 -i 14 -k AGT
+ -t 5.280000000 -s 1 -d 16 -p cbr -e 1020 -c 2 -a 0 -i 14 -k RTR 
- -t 5.280000000 -s 1 -d 16 -p cbr -e 1020 -c 2 -a 0 -i 14 -k RTR
h -t 5.280000000 -s 1 -d 16 -p cbr -e 1020 -c 2 -a 0 -i 14 -k RTR
+ -t 5.280736867 -s 16 -d 9 -p cbr -e 1020 -c 2 -a 0 -i 4 -k RTR 
- -t 5.280736867 -s 16 -d 9 -p cbr -e 1020 -c 2 -a 0 -i 4 -k RTR
h -t 5.280736867 -s 16 -d 9 -p cbr -e 1020 -c 2 -a 0 -i 4 -k RTR
r -t 5.281492105 -s 13 -d 13 -p cbr -e 1020 -c 2 -a 0 -i 2 -k AGT
+ -t 5.290422221 -s 9 -d 19 -p cbr -e 1020 -c 2 -a 0 -i 4 -k RTR 
- -t 5.290422221 -s 9 -d 19 -p cbr -e 1020 -c 2 -a 0 -i 4 -k RTR
h -t 5.290422221 -s 9 -d 19 -p cbr -e 1020 -c 2 -a 0 -i 4 -k RTR
+ -t 5.300000000 -s 1 -d -1 -p cbr -e 1000 -c 2 -a 0 -i 15 -k AGT 
- -t 5.300000000 -s 1 -d -1 -p cbr -e 1000 -c 2 -a 0 -i 15 -k AGT
h -t 5.300000000 -s 1 -d -1 -p cbr -e 1000 -c 2 -a 0 -i 15 -k AGT
+ -t 5.300000000 -s 1 -d 16 -p cbr -e 1020 -c 2 -a 0 -i 15 -k RTR 
- -t 5.300000000 -s 1 -d 16 -p cbr -e 1020 -c 2 -a 0 -i 15 -k RTR
h -t 5.300000000 -s 1 -d 16 -p cbr -e 1020 -c 2 -a 0 -i 15 -k RTR
+ -t 5.300408388 -s 19 -d 10 -p cbr -e 1020 -c 2 -a 0 -i 4 -k RTR 
- -t 5.300408388 -s 19 -d 10 -p cbr -e 1020 -c 2 -a 0 -i 4 -k RTR
h -t 5.300408388 -s 19 -d 10 -p cbr -e 1020 -c 2 -a 0 -i 4 -k RTR
+ -t 5.310174812 -s 10 -d 0 -p cbr -e 1020 -c 2 -a 0 -i 4 -k RTR 
- -t 5.310174812 -s 10 -d 0 -p cbr -e 1020 -c 2 -a 0 -i 4 -k RTR
h -t 5.310174812 -s 10 -d 0 -p cbr -e 1020 -c 2 -a 0 -i 4 -k RTR
+ -t 5.320000000 -s 1 -d -1 -p cbr -e 1000 -c 2 -a 0 -i 16 -k AGT 
- -t 5.320000000 -s 1 -d -1 -p cbr -e 1000 -c 2 -a 0 -i 16 -k AGT
h -t 5.320000000 -s 1 -d -1 -p cbr -e 1000 -c 2 -a 0 -i 16 -k AGT
+ -t 5.320000000 -s 1 -d 16 -p cbr -e 1020 -c 2 -a 0 -i 16 -k RTR 
- -t 5.320000000 -s 1 -d 16 -p cbr -e 1020 -c 2 -a 0 -i 16 -k RTR
h -t 5.320000000 -s 1 -d 16 -p cbr -e 1020 -c 2 -a 0 -i 16 -k RTR
+ -t 5.320381024 -s 0 -d 13 -p cbr -e 1020 -c 2 -a 0 -i 4 -k RTR 
- -t 5.320381024 -s 0 -d 13 -p cbr -e 1020 -c 2 -a 0 -i 4 -k RTR
h -t 5.320381024 -s 0 -d 13 -p cbr -e 1020 -c 2 -a 0 -i 4 -k RTR
r -t 5.330186076 -s 13 -d 13 -p cbr -e 1020 -c 2 -a 0 -i 4 -k AGT
+ -t 5.335870833 -s 16 -d 9 -p cbr -e 1020 -c 2 -a 0 -i 5 -k RTR 
- -t 5.335870833 -s 16 -d 9 -p cbr -e 1020 -c 2 -a 0 -i 5 -k RTR
h -t 5.335870833 -s 16 -d 9 -p cbr -e 1020 -c 2 -a 0 -i 5 -k RTR
+ -t 5.340000000 -s 1 -d -1 -p cbr -e 1000 -c 2 -a 0 -i 17 -k AGT 
- -t 5.340000000 -s 1 -d -1 -p cbr -e 1000 -c 2 -a 0 -i 17 -k AGT
h -t 5.340000000 -s 1 -d -1 -p cbr -e 1000 -c 2 -a 0 -i 17 -k AGT
+ -t 5.340000000 -s 1 -d 16 -p cbr -e 1020 -c 2 -a 0 -i 17 -k RTR 
- -t 5.340000000 -s 1 -d 16 -p cbr -e 1020 -c 2 -a 0 -i 17 -k RTR
h -t 5.340000000 -s 1 -d 16 -p cbr -e 1020 -c 2 -a 0 -i 17 -k RTR
+ -t 5.345636187 -s 9 -d 19 -p cbr -e 1020 -c 2 -a 0 -i 5 -k RTR 
- -t 5.345636187 -s 9 -d 19 -p cbr -e 1020 -c 2 -a 0 -i 5 -k RTR
h -t 5.345636187 -s 9 -d 19 -p cbr -e 1020 -c 2 -a 0 -i 5 -k RTR
+ -t 5.355302355 -s 19 -d 10 -p cbr -e 1020 -c 2 -a 0 -i 5 -k RTR 
- -t 5.355302355 -s 19 -d 10 -p cbr -e 1020 -c 2 -a 0 -i 5 -k RTR
h -t 5.355302355 -s 19 -d 10 -p cbr -e 1020 -c 2 -a 0 -i 5 -k RTR
+ -t 5.360000000 -s 1 -d -1 -p cbr -e 1000 -c 2 -a 0 -i 18 -k AGT 
- -t 5.360000000 -s 1 -d -1 -p cbr -e 1000 -c 2 -a 0 -i 18 -k AGT
h -t 5.360000000 -s 1 -d -1 -p cbr -e 1000 -c 2 -a 0 -i 18 -k AGT
+ -t 5.360000000 -s 1 -d 16 -p cbr -e 1020 -c 2 -a 0 -i 18 -k RTR 
- -t 5.360000000 -s 1 -d 16 -p cbr -e 1020 -c 2 -a 0 -i 18 -k RTR
h -t 5.360000000 -s 1 -d 16 -p cbr -e 1020 -c 2 -a 0 -i 18 -k RTR
+ -t 5.365348780 -s 10 -d 0 -p cbr -e 1020 -c 2 -a 0 -i 5 -k RTR 
- -t 5.365348780 -s 10 -d 0 -p cbr -e 1020 -c 2 -a 0 -i 5 -k RTR
h -t 5.365348780 -s 10 -d 0 -p cbr -e 1020 -c 2 -a 0 -i 5 -k RTR
+ -t 5.375254992 -s 0 -d 13 -p cbr -e 1020 -c 2 -a 0 -i 5 -k RTR 
- -t 5.375254992 -s 0 -d 13 -p cbr -e 1020 -c 2 -a 0 -i 5 -k RTR
h -t 5.375254992 -s 0 -d 13 -p cbr -e 1020 -c 2 -a 0 -i 5 -k RTR
+ -t 5.380000000 -s 1 -d -1 -p cbr -e 1000 -c 2 -a 0 -i 19 -k AGT 
- -t 5.380000000 -s 1 -d -1 -p cbr -e 1000 -c 2 -a 0 -i 19 -k AGT
h -t 5.380000000 -s 1 -d -1 -p cbr -e 1000 -c 2 -a 0 -i 19 -k AGT
+ -t 5.380000000 -s 1 -d 16 -p cbr -e 1020 -c 2 -a 0 -i 19 -k RTR 
- -t 5.380000000 -s 1 -d 16 -p cbr -e 1020 -c 2 -a 0 -i 19 -k RTR
h -t 5.380000000 -s 1 -d 16 -p cbr -e 1020 -c 2 -a 0 -i 19 -k RTR
r -t 5.385520047 -s 13 -d 13 -p cbr -e 1020 -c 2 -a 0 -i 5 -k AGT
+ -t 5.389844799 -s 16 -d 9 -p cbr -e 1020 -c 2 -a 0 -i 6 -k RTR 
- -t 5.389844799 -s 16 -d 9 -p cbr -e 1020 -c 2 -a 0 -i 6 -k RTR
h -t 5.389844799 -s 16 -d 9 -p cbr -e 1020 -c 2 -a 0 -i 6 -k RTR
+ -t 5.399550486 -s 16 -d 9 -p cbr -e 1020 -c 2 -a 0 -i 7 -k RTR 
- -t 5.399550486 -s 16 -d 9 -p cbr -e 1020 -c 2 -a 0 -i 7 -k RTR
h -t 5.399550486 -s 16 -d 9 -p cbr -e 1020 -c 2 -a 0 -i 7 -k RTR
+ -t 5.400000000 -s 1 -d -1 -p cbr -e 1000 -c 2 -a 0 -i 20 -k AGT 
- -t 5.400000000 -s 1 -d -1 -p cbr -e 1000 -c 2 -a 0 -i 20 -k AGT
h -t 5.400000000 -s 1 -d -1 -p cbr -e 1000 -c 2 -a 0 -i 20 -k AGT
+ -t 5.400000000 -s 1 -d 16 -p cbr -e 1020 -c 2 -a 0 -i 20 -k RTR 
- -t 5.400000000 -s 1 -d 16 -p cbr -e 1020 -c 2 -a 0 -i 20 -k RTR
h -t 5.400000000 -s 1 -d 16 -p cbr -e 1020 -c 2 -a 0 -i 20 -k RTR
+ -t 5.409696173 -s 16 -d 9 -p cbr -e 1020 -c 2 -a 0 -i 8 -k RTR 
- -t 5.409696173 -s 16 -d 9 -p cbr -e 1020 -c 2 -a 0 -i 8 -k RTR
h -t 5.409696173 -s 16 -d 9 -p cbr -e 1020 -c 2 -a 0 -i 8 -k RTR
+ -t 5.419381525 -s 9 -d 19 -p cbr -e 1020 -c 2 -a 0 -i 6 -k RTR 
- -t 5.419381525 -s 9 -d 19 -p cbr -e 1020 -c 2 -a 0 -i 6 -k RTR
h -t 5.419381525 -s 9 -d 19 -p cbr -e 1020 -c 2 -a 0 -i 6 -k RTR
+ -t 5.420000000 -s 1 -d -1 -p cbr -e 1000 -c 2 -a 0 -i 21 -k AGT 
- -t 5.420000000 -s 1 -d -1 -p cbr -e 1000 -c 2 -a 0 -i 21 -k AGT
h -t 5.420000000 -s 1 -d -1 -p cbr -e 1000 -c 2 -a 0 -i 21 -k AGT
+ -t 5.420000000 -s 1 -d 16 -p cbr -e 1020 -c 2 -a 0 -i 21 -k RTR 
- -t 5.420000000 -s 1 -d 16 -p cbr -e 1020 -c 2 -a 0 -i 21 -k RTR
h -t 5.420000000 -s 1 -d 16 -p cbr -e 1020 -c 2 -a 0 -i 21 -k RTR
+ -t 5.429047696 -s 19 -d 10 -p cbr -e 1020 -c 2 -a 0 -i 6 -k RTR 
- -t 5.429047696 -s 19 -d 10 -p cbr -e 1020 -c 2 -a 0 -i 6 -k RTR
h -t 5.429047696 -s 19 -d 10 -p cbr -e 1020 -c 2 -a 0 -i 6 -k RTR
+ -t 5.439158209 -s 9 -d 19 -p cbr -e 1020 -c 2 -a 0 -i 7 -k RTR 
- -t 5.439158209 -s 9 -d 19 -p cbr -e 1020 -c 2 -a 0 -i 7 -k RTR
h -t 5.439158209 -s 9 -d 19 -p cbr -e 1020 -c 2 -a 0 -i 7 -k RTR
+ -t 5.440000000 -s 1 -d -1 -p cbr -e 1000 -c 2 -a 0 -i 22 -k AGT 
- -t 5.440000000 -s 1 -d -1 -p cbr -e 1000 -c 2 -a 0 -i 22 -k AGT
h -t 5.440000000 -s 1 -d -1 -p cbr -e 1000 -c 2 -a 0 -i 22 -k AGT
+ -t 5.440000000 -s 1 -d 16 -p cbr -e 1020 -c 2 -a 0 -i 22 -k RTR 
- -t 5.440000000 -s 1 -d 16 -p cbr -e 1020 -c 2 -a 0 -i 22 -k RTR
h -t 5.440000000 -s 1 -d 16 -p cbr -e 1020 -c 2 -a 0 -i 22 -k RTR
+ -t 5.448995342 -s 10 -d 0 -p cbr -e 1020 -c 2 -a 0 -i 6 -k RTR 
- -t 5.448995342 -s 10 -d 0 -p cbr -e 1020 -c 2 -a 0 -i 6 -k RTR
h -t 5.448995342 -s 10 -d 0 -p cbr -e 1020 -c 2 -a 0 -i 6 -k RTR
+ -t 5.459141557 -s 0 -d 13 -p cbr -e 1020 -c 2 -a 0 -i 6 -k RTR 
- -t 5.459141557 -s 0 -d 13 -p cbr -e 1020 -c 2 -a 0 -i 6 -k RTR
h -t 5.459141557 -s 0 -d 13 -p cbr -e 1020 -c 2 -a 0 -i 6 -k RTR
+ -t 5.460000000 -s 1 -d -1 -p cbr -e 1000 -c 2 -a 0 -i 23 -k AGT 
- -t 5.460000000 -s 1 -d -1 -p cbr -e 1000 -c 2 -a 0 -i 23 -k AGT
h -t 5.460000000 -s 1 -d -1 -p cbr -e 1000 -c 2 -a 0 -i 23 -k AGT
+ -t 5.460000000 -s 1 -d 16 -p cbr -e 1020 -c 2 -a 0 -i 23 -k RTR 
- -t 5.460000000 -s 1 -d 16 -p cbr -e 1020 -c 2 -a 0 -i 23 -k RTR
h -t 5.460000000 -s 1 -d 16 -p cbr -e 1020 -c 2 -a 0 -i 23 -k RTR
r -t 5.468806614 -s 13 -d 13 -p cbr -e 1020 -c 2 -a 0 -i 6 -k AGT
+ -t 5.469137869 -s 9 -d 19 -p cbr -e 1020 -c 2 -a 0 -i 8 -k RTR 
- -t 5.469137869 -s 9 -d 19 -p cbr -e 1020 -c 2 -a 0 -i 8 -k RTR
h -t 5.469137869 -s 9 -d 19 -p cbr -e 1020 -c 2 -a 0 -i 8 -k RTR
+ -t 5.478824042 -s 19 -d 10 -p cbr -e 1020 -c 2 -a 0 -i 7 -k RTR 
- -t 5.478824042 -s 19 -d 10 -p cbr -e 1020 -c 2 -a 0 -i 7 -k RTR
h -t 5.478824042 -s 19 -d 10 -p cbr -e 1020 -c 2 -a 0 -i 7 -k RTR
+ -t 5.480000000 -s 1 -d -1 -p cbr -e 1000 -c 2 -a 0 -i 24 -k AGT 
- -t 5.480000000 -s 1 -d -1 -p cbr -e 1000 -c 2 -a 0 -i 24 -k AGT
h -t 5.480000000 -s 1 -d -1 -p cbr -e 1000 -c 2 -a 0 -i 24 -k AGT
+ -t 5.480000000 -s 1 -d 16 -p cbr -e 1020 -c 2 -a 0 -i 24 -k RTR 
- -t 5.480000000 -s 1 -d 16 -p cbr -e 1020 -c 2 -a 0 -i 24 -k RTR